 running on   16 total cores
 distrk:  each k-point on   16 cores,    1 groups
 distr:  one band on    8 cores,    2 groups
 using from now: INCAR     
 vasp.5.4.4.18Apr17-6-g9f103f2a35 (build Aug 06 2018 12:32:45) complex          
  
 POSCAR found :  2 types and       4 ions
 LDA part: xc-table for Pade appr. of Perdew
 POSCAR, INCAR and KPOINTS ok, starting setup
 FFT: planning ...
 WAVECAR not read
 entering main loop
       N       E                     dE             d eps       ncg     rms          rms(c)
DAV:   1     0.189725309150E+02    0.18973E+02   -0.38983E+03  1120   0.800E+02
DAV:   2    -0.166530085983E+02   -0.35626E+02   -0.34814E+02  1500   0.111E+02
DAV:   3    -0.182387120677E+02   -0.15857E+01   -0.15814E+01  1402   0.263E+01
DAV:   4    -0.182567187763E+02   -0.18007E-01   -0.18003E-01  1496   0.328E+00
DAV:   5    -0.182569620450E+02   -0.24327E-03   -0.24326E-03  1462   0.347E-01    0.675E+00
 WARNING: Sub-Space-Matrix is not hermitian in DAV            4
 -1.784421259711802E-005
 WARNING: Sub-Space-Matrix is not hermitian in DAV            5
  1.762871608712235E-005
 WARNING: Sub-Space-Matrix is not hermitian in DAV            4
 -1.784421259711802E-005
 WARNING: Sub-Space-Matrix is not hermitian in DAV            5
  1.762871608712235E-005
 WARNING: Sub-Space-Matrix is not hermitian in DAV            4
 -1.784421259711802E-005
 WARNING: Sub-Space-Matrix is not hermitian in DAV            5
  1.762871608712235E-005
 WARNING: Sub-Space-Matrix is not hermitian in DAV            4
 -1.784421259711802E-005
 WARNING: Sub-Space-Matrix is not hermitian in DAV            5
  1.762871608712235E-005
 WARNING: Sub-Space-Matrix is not hermitian in DAV            4
 -1.784421259711802E-005
 WARNING: Sub-Space-Matrix is not hermitian in DAV            5
  1.762871608712235E-005
 WARNING: Sub-Space-Matrix is not hermitian in DAV            4
 -1.784421259711802E-005
 WARNING: Sub-Space-Matrix is not hermitian in DAV            5
  1.762871608712235E-005
 WARNING: Sub-Space-Matrix is not hermitian in DAV            4
 -1.784421259711802E-005
 WARNING: Sub-Space-Matrix is not hermitian in DAV            5
  1.762871608712235E-005
 WARNING: Sub-Space-Matrix is not hermitian in DAV            4
 -1.784421259711802E-005
 WARNING: Sub-Space-Matrix is not hermitian in DAV            5
  1.762871608712235E-005
 WARNING: Sub-Space-Matrix is not hermitian in DAV            4
 -1.784421259711802E-005
 WARNING: Sub-Space-Matrix is not hermitian in DAV            5
  1.762871608712235E-005
 WARNING: Sub-Space-Matrix is not hermitian in DAV            4
 -1.784421259711802E-005
 WARNING: Sub-Space-Matrix is not hermitian in DAV            5
  1.762871608712235E-005
 WARNING: Sub-Space-Matrix is not hermitian in DAV            4
 -1.784421259711802E-005
 WARNING: Sub-Space-Matrix is not hermitian in DAV            5
  1.762871608712235E-005
 WARNING: Sub-Space-Matrix is not hermitian in DAV            4
 -1.784421259711802E-005
 WARNING: Sub-Space-Matrix is not hermitian in DAV            5
  1.762871608712235E-005
 WARNING: Sub-Space-Matrix is not hermitian in DAV            4
 -1.784421259711802E-005
 WARNING: Sub-Space-Matrix is not hermitian in DAV            5
  1.762871608712235E-005
 WARNING: Sub-Space-Matrix is not hermitian in DAV            4
 -1.784421259711802E-005
 WARNING: Sub-Space-Matrix is not hermitian in DAV            5
  1.762871608712235E-005
 WARNING: Sub-Space-Matrix is not hermitian in DAV            4
 -1.784421259711802E-005
 WARNING: Sub-Space-Matrix is not hermitian in DAV            5
  1.762871608712235E-005
 WARNING: Sub-Space-Matrix is not hermitian in DAV            4
 -1.784421259711802E-005
 WARNING: Sub-Space-Matrix is not hermitian in DAV            5
  1.762871608712235E-005
 WARNING: Sub-Space-Matrix is not hermitian in DAV            4
  1.696994570612455E-005
 WARNING: Sub-Space-Matrix is not hermitian in DAV            5
 -1.847373541613252E-005
 WARNING: Sub-Space-Matrix is not hermitian in DAV            4
  1.696994570612455E-005
 WARNING: Sub-Space-Matrix is not hermitian in DAV            5
 -1.847373541613252E-005
 WARNING: Sub-Space-Matrix is not hermitian in DAV            4
  1.696994570612455E-005
 WARNING: Sub-Space-Matrix is not hermitian in DAV            5
 -1.847373541613252E-005
 WARNING: Sub-Space-Matrix is not hermitian in DAV            4
  1.696994570612455E-005
 WARNING: Sub-Space-Matrix is not hermitian in DAV            5
 -1.847373541613252E-005
 WARNING: Sub-Space-Matrix is not hermitian in DAV            4
  1.696994570612455E-005
 WARNING: Sub-Space-Matrix is not hermitian in DAV            5
 -1.847373541613252E-005
 WARNING: Sub-Space-Matrix is not hermitian in DAV            4
  1.696994570612455E-005
 WARNING: Sub-Space-Matrix is not hermitian in DAV            5
 -1.847373541613252E-005
 WARNING: Sub-Space-Matrix is not hermitian in DAV            4
  1.696994570612455E-005
 WARNING: Sub-Space-Matrix is not hermitian in DAV            5
 -1.847373541613252E-005
 WARNING: Sub-Space-Matrix is not hermitian in DAV            4
  1.696994570612455E-005
 WARNING: Sub-Space-Matrix is not hermitian in DAV            5
 -1.847373541613252E-005
 WARNING: Sub-Space-Matrix is not hermitian in DAV            4
  1.696994570612455E-005
 WARNING: Sub-Space-Matrix is not hermitian in DAV            5
 -1.847373541613252E-005
 WARNING: Sub-Space-Matrix is not hermitian in DAV            4
  1.696994570612455E-005
 WARNING: Sub-Space-Matrix is not hermitian in DAV            5
 -1.847373541613252E-005
 WARNING: Sub-Space-Matrix is not hermitian in DAV            4
  1.696994570612455E-005
 WARNING: Sub-Space-Matrix is not hermitian in DAV            5
 -1.847373541613252E-005
 WARNING: Sub-Space-Matrix is not hermitian in DAV            4
  1.696994570612455E-005
 WARNING: Sub-Space-Matrix is not hermitian in DAV            5
 -1.847373541613252E-005
 WARNING: Sub-Space-Matrix is not hermitian in DAV            4
  1.696994570612455E-005
 WARNING: Sub-Space-Matrix is not hermitian in DAV            5
 -1.847373541613252E-005
 WARNING: Sub-Space-Matrix is not hermitian in DAV            4
  1.696994570612455E-005
 WARNING: Sub-Space-Matrix is not hermitian in DAV            5
 -1.847373541613252E-005
 WARNING: Sub-Space-Matrix is not hermitian in DAV            4
  1.696994570612455E-005
 WARNING: Sub-Space-Matrix is not hermitian in DAV            5
 -1.847373541613252E-005
 WARNING: Sub-Space-Matrix is not hermitian in DAV            4
  1.696994570612455E-005
 WARNING: Sub-Space-Matrix is not hermitian in DAV            5
 -1.847373541613252E-005
 WARNING: Sub-Space-Matrix is not hermitian in DAV            5
 -1.609656406236203E-005
 WARNING: Sub-Space-Matrix is not hermitian in DAV            5
 -1.609656406236203E-005
 WARNING: Sub-Space-Matrix is not hermitian in DAV            5
 -1.609656406236203E-005
 WARNING: Sub-Space-Matrix is not hermitian in DAV            5
 -1.609656406236203E-005
 WARNING: Sub-Space-Matrix is not hermitian in DAV            5
 -1.609656406236203E-005
 WARNING: Sub-Space-Matrix is not hermitian in DAV            5
 -1.609656406236203E-005
 WARNING: Sub-Space-Matrix is not hermitian in DAV            5
 -1.609656406236203E-005
 WARNING: Sub-Space-Matrix is not hermitian in DAV            5
 -1.609656406236203E-005
 WARNING: Sub-Space-Matrix is not hermitian in DAV            5
 -1.609656406236203E-005
 WARNING: Sub-Space-Matrix is not hermitian in DAV            5
 -1.609656406236203E-005
 WARNING: Sub-Space-Matrix is not hermitian in DAV            5
 -1.609656406236203E-005
 WARNING: Sub-Space-Matrix is not hermitian in DAV            5
 -1.609656406236203E-005
 WARNING: Sub-Space-Matrix is not hermitian in DAV            5
 -1.609656406236203E-005
 WARNING: Sub-Space-Matrix is not hermitian in DAV            5
 -1.609656406236203E-005
 WARNING: Sub-Space-Matrix is not hermitian in DAV            5
 -1.609656406236203E-005
 WARNING: Sub-Space-Matrix is not hermitian in DAV            5
 -1.609656406236203E-005
 WARNING: Sub-Space-Matrix is not hermitian in DAV            5
 -1.260909029690804E-005
 WARNING: Sub-Space-Matrix is not hermitian in DAV            5
 -1.260909029690804E-005
 WARNING: Sub-Space-Matrix is not hermitian in DAV            5
 -1.260909029690804E-005
 WARNING: Sub-Space-Matrix is not hermitian in DAV            5
 -1.260909029690804E-005
 WARNING: Sub-Space-Matrix is not hermitian in DAV            5
 -1.260909029690804E-005
 WARNING: Sub-Space-Matrix is not hermitian in DAV            5
 -1.260909029690804E-005
 WARNING: Sub-Space-Matrix is not hermitian in DAV            5
 -1.260909029690804E-005
 WARNING: Sub-Space-Matrix is not hermitian in DAV            5
 -1.260909029690804E-005
 WARNING: Sub-Space-Matrix is not hermitian in DAV            5
 -1.260909029690804E-005
 WARNING: Sub-Space-Matrix is not hermitian in DAV            5
 -1.260909029690804E-005
 WARNING: Sub-Space-Matrix is not hermitian in DAV            5
 -1.260909029690804E-005
 WARNING: Sub-Space-Matrix is not hermitian in DAV            5
 -1.260909029690804E-005
 WARNING: Sub-Space-Matrix is not hermitian in DAV            5
 -1.260909029690804E-005
 WARNING: Sub-Space-Matrix is not hermitian in DAV            5
 -1.260909029690804E-005
 WARNING: Sub-Space-Matrix is not hermitian in DAV            5
 -1.260909029690804E-005
 WARNING: Sub-Space-Matrix is not hermitian in DAV            5
 -1.260909029690804E-005
 WARNING: Sub-Space-Matrix is not hermitian in DAV            5
 -1.853222313292588E-005
 WARNING: Sub-Space-Matrix is not hermitian in DAV            5
 -1.853222313292588E-005
 WARNING: Sub-Space-Matrix is not hermitian in DAV            5
 -1.853222313292588E-005
 WARNING: Sub-Space-Matrix is not hermitian in DAV            5
 -1.853222313292588E-005
 WARNING: Sub-Space-Matrix is not hermitian in DAV            5
 -1.853222313292588E-005
 WARNING: Sub-Space-Matrix is not hermitian in DAV            5
 -1.853222313292588E-005
 WARNING: Sub-Space-Matrix is not hermitian in DAV            5
 -1.853222313292588E-005
 WARNING: Sub-Space-Matrix is not hermitian in DAV            5
 -1.853222313292588E-005
 WARNING: Sub-Space-Matrix is not hermitian in DAV            5
 -1.853222313292588E-005
 WARNING: Sub-Space-Matrix is not hermitian in DAV            5
 -1.853222313292588E-005
 WARNING: Sub-Space-Matrix is not hermitian in DAV            5
 -1.853222313292588E-005
 WARNING: Sub-Space-Matrix is not hermitian in DAV            5
 -1.853222313292588E-005
 WARNING: Sub-Space-Matrix is not hermitian in DAV            5
 -1.853222313292588E-005
 WARNING: Sub-Space-Matrix is not hermitian in DAV            5
 -1.853222313292588E-005
 WARNING: Sub-Space-Matrix is not hermitian in DAV            5
 -1.853222313292588E-005
 WARNING: Sub-Space-Matrix is not hermitian in DAV            5
 -1.853222313292588E-005
 WARNING: Sub-Space-Matrix is not hermitian in DAV            4
 -1.793270018904237E-005
 WARNING: Sub-Space-Matrix is not hermitian in DAV            5
  1.771662251689481E-005
 WARNING: Sub-Space-Matrix is not hermitian in DAV            4
 -1.793270018904237E-005
 WARNING: Sub-Space-Matrix is not hermitian in DAV            5
  1.771662251689481E-005
 WARNING: Sub-Space-Matrix is not hermitian in DAV            4
 -1.793270018904237E-005
 WARNING: Sub-Space-Matrix is not hermitian in DAV            5
  1.771662251689481E-005
 WARNING: Sub-Space-Matrix is not hermitian in DAV            4
 -1.793270018904237E-005
 WARNING: Sub-Space-Matrix is not hermitian in DAV            5
  1.771662251689481E-005
 WARNING: Sub-Space-Matrix is not hermitian in DAV            4
 -1.793270018904237E-005
 WARNING: Sub-Space-Matrix is not hermitian in DAV            5
  1.771662251689481E-005
 WARNING: Sub-Space-Matrix is not hermitian in DAV            4
 -1.793270018904237E-005
 WARNING: Sub-Space-Matrix is not hermitian in DAV            5
  1.771662251689481E-005
 WARNING: Sub-Space-Matrix is not hermitian in DAV            4
 -1.793270018904237E-005
 WARNING: Sub-Space-Matrix is not hermitian in DAV            5
  1.771662251689481E-005
 WARNING: Sub-Space-Matrix is not hermitian in DAV            4
 -1.793270018904237E-005
 WARNING: Sub-Space-Matrix is not hermitian in DAV            5
  1.771662251689481E-005
 WARNING: Sub-Space-Matrix is not hermitian in DAV            4
 -1.793270018904237E-005
 WARNING: Sub-Space-Matrix is not hermitian in DAV            5
  1.771662251689481E-005
 WARNING: Sub-Space-Matrix is not hermitian in DAV            4
 -1.793270018904237E-005
 WARNING: Sub-Space-Matrix is not hermitian in DAV            5
  1.771662251689481E-005
 WARNING: Sub-Space-Matrix is not hermitian in DAV            4
 -1.793270018904237E-005
 WARNING: Sub-Space-Matrix is not hermitian in DAV            5
  1.771662251689481E-005
 WARNING: Sub-Space-Matrix is not hermitian in DAV            4
 -1.793270018904237E-005
 WARNING: Sub-Space-Matrix is not hermitian in DAV            5
  1.771662251689481E-005
 WARNING: Sub-Space-Matrix is not hermitian in DAV            4
 -1.793270018904237E-005
 WARNING: Sub-Space-Matrix is not hermitian in DAV            5
  1.771662251689481E-005
 WARNING: Sub-Space-Matrix is not hermitian in DAV            4
 -1.793270018904237E-005
 WARNING: Sub-Space-Matrix is not hermitian in DAV            5
  1.771662251689481E-005
 WARNING: Sub-Space-Matrix is not hermitian in DAV            4
 -1.793270018904237E-005
 WARNING: Sub-Space-Matrix is not hermitian in DAV            5
  1.771662251689481E-005
 WARNING: Sub-Space-Matrix is not hermitian in DAV            4
 -1.793270018904237E-005
 WARNING: Sub-Space-Matrix is not hermitian in DAV            5
  1.771662251689481E-005
 WARNING: Sub-Space-Matrix is not hermitian in DAV            4
  1.704717191596313E-005
 WARNING: Sub-Space-Matrix is not hermitian in DAV            5
 -1.860023518962653E-005
 WARNING: Sub-Space-Matrix is not hermitian in DAV            4
  1.704717191596313E-005
 WARNING: Sub-Space-Matrix is not hermitian in DAV            5
 -1.860023518962653E-005
 WARNING: Sub-Space-Matrix is not hermitian in DAV            4
  1.704717191596313E-005
 WARNING: Sub-Space-Matrix is not hermitian in DAV            5
 -1.860023518962653E-005
 WARNING: Sub-Space-Matrix is not hermitian in DAV            4
  1.704717191596313E-005
 WARNING: Sub-Space-Matrix is not hermitian in DAV            5
 -1.860023518962653E-005
 WARNING: Sub-Space-Matrix is not hermitian in DAV            4
  1.704717191596313E-005
 WARNING: Sub-Space-Matrix is not hermitian in DAV            5
 -1.860023518962653E-005
 WARNING: Sub-Space-Matrix is not hermitian in DAV            4
  1.704717191596313E-005
 WARNING: Sub-Space-Matrix is not hermitian in DAV            5
 -1.860023518962653E-005
 WARNING: Sub-Space-Matrix is not hermitian in DAV            4
  1.704717191596313E-005
 WARNING: Sub-Space-Matrix is not hermitian in DAV            5
 -1.860023518962653E-005
 WARNING: Sub-Space-Matrix is not hermitian in DAV            4
  1.704717191596313E-005
 WARNING: Sub-Space-Matrix is not hermitian in DAV            5
 -1.860023518962653E-005
 WARNING: Sub-Space-Matrix is not hermitian in DAV            4
  1.704717191596313E-005
 WARNING: Sub-Space-Matrix is not hermitian in DAV            5
 -1.860023518962653E-005
 WARNING: Sub-Space-Matrix is not hermitian in DAV            4
  1.704717191596313E-005
 WARNING: Sub-Space-Matrix is not hermitian in DAV            5
 -1.860023518962653E-005
 WARNING: Sub-Space-Matrix is not hermitian in DAV            4
  1.704717191596313E-005
 WARNING: Sub-Space-Matrix is not hermitian in DAV            5
 -1.860023518962653E-005
 WARNING: Sub-Space-Matrix is not hermitian in DAV            4
  1.704717191596313E-005
 WARNING: Sub-Space-Matrix is not hermitian in DAV            5
 -1.860023518962653E-005
 WARNING: Sub-Space-Matrix is not hermitian in DAV            4
  1.704717191596313E-005
 WARNING: Sub-Space-Matrix is not hermitian in DAV            5
 -1.860023518962653E-005
 WARNING: Sub-Space-Matrix is not hermitian in DAV            4
  1.704717191596313E-005
 WARNING: Sub-Space-Matrix is not hermitian in DAV            5
 -1.860023518962653E-005
 WARNING: Sub-Space-Matrix is not hermitian in DAV            4
  1.704717191596313E-005
 WARNING: Sub-Space-Matrix is not hermitian in DAV            5
 -1.860023518962653E-005
 WARNING: Sub-Space-Matrix is not hermitian in DAV            4
  1.704717191596313E-005
 WARNING: Sub-Space-Matrix is not hermitian in DAV            5
 -1.860023518962653E-005
 WARNING: Sub-Space-Matrix is not hermitian in DAV            5
 -1.625677919339674E-005
 WARNING: Sub-Space-Matrix is not hermitian in DAV            5
 -1.625677919339674E-005
 WARNING: Sub-Space-Matrix is not hermitian in DAV            5
 -1.625677919339674E-005
 WARNING: Sub-Space-Matrix is not hermitian in DAV            5
 -1.625677919339674E-005
 WARNING: Sub-Space-Matrix is not hermitian in DAV            5
 -1.625677919339674E-005
 WARNING: Sub-Space-Matrix is not hermitian in DAV            5
 -1.625677919339674E-005
 WARNING: Sub-Space-Matrix is not hermitian in DAV            5
 -1.625677919339674E-005
 WARNING: Sub-Space-Matrix is not hermitian in DAV            5
 -1.625677919339674E-005
 WARNING: Sub-Space-Matrix is not hermitian in DAV            5
 -1.625677919339674E-005
 WARNING: Sub-Space-Matrix is not hermitian in DAV            5
 -1.625677919339674E-005
 WARNING: Sub-Space-Matrix is not hermitian in DAV            5
 -1.625677919339674E-005
 WARNING: Sub-Space-Matrix is not hermitian in DAV            5
 -1.625677919339674E-005
 WARNING: Sub-Space-Matrix is not hermitian in DAV            5
 -1.625677919339674E-005
 WARNING: Sub-Space-Matrix is not hermitian in DAV            5
 -1.625677919339674E-005
 WARNING: Sub-Space-Matrix is not hermitian in DAV            5
 -1.625677919339674E-005
 WARNING: Sub-Space-Matrix is not hermitian in DAV            5
 -1.625677919339674E-005
 WARNING: Sub-Space-Matrix is not hermitian in DAV            5
 -1.287259830336112E-005
 WARNING: Sub-Space-Matrix is not hermitian in DAV            5
 -1.287259830336112E-005
 WARNING: Sub-Space-Matrix is not hermitian in DAV            5
 -1.287259830336112E-005
 WARNING: Sub-Space-Matrix is not hermitian in DAV            5
 -1.287259830336112E-005
 WARNING: Sub-Space-Matrix is not hermitian in DAV            5
 -1.287259830336112E-005
 WARNING: Sub-Space-Matrix is not hermitian in DAV            5
 -1.287259830336112E-005
 WARNING: Sub-Space-Matrix is not hermitian in DAV            5
 -1.287259830336112E-005
 WARNING: Sub-Space-Matrix is not hermitian in DAV            5
 -1.287259830336112E-005
 WARNING: Sub-Space-Matrix is not hermitian in DAV            5
 -1.287259830336112E-005
 WARNING: Sub-Space-Matrix is not hermitian in DAV            5
 -1.287259830336112E-005
 WARNING: Sub-Space-Matrix is not hermitian in DAV            5
 -1.287259830336112E-005
 WARNING: Sub-Space-Matrix is not hermitian in DAV            5
 -1.287259830336112E-005
 WARNING: Sub-Space-Matrix is not hermitian in DAV            5
 -1.287259830336112E-005
 WARNING: Sub-Space-Matrix is not hermitian in DAV            5
 -1.287259830336112E-005
 WARNING: Sub-Space-Matrix is not hermitian in DAV            5
 -1.287259830336112E-005
 WARNING: Sub-Space-Matrix is not hermitian in DAV            5
 -1.287259830336112E-005
 WARNING: Sub-Space-Matrix is not hermitian in DAV            5
 -1.881490284922687E-005
 WARNING: Sub-Space-Matrix is not hermitian in DAV            5
 -1.881490284922687E-005
 WARNING: Sub-Space-Matrix is not hermitian in DAV            5
 -1.881490284922687E-005
 WARNING: Sub-Space-Matrix is not hermitian in DAV            5
 -1.881490284922687E-005
 WARNING: Sub-Space-Matrix is not hermitian in DAV            5
 -1.881490284922687E-005
 WARNING: Sub-Space-Matrix is not hermitian in DAV            5
 -1.881490284922687E-005
 WARNING: Sub-Space-Matrix is not hermitian in DAV            5
 -1.881490284922687E-005
 WARNING: Sub-Space-Matrix is not hermitian in DAV            5
 -1.881490284922687E-005
 WARNING: Sub-Space-Matrix is not hermitian in DAV            5
 -1.881490284922687E-005
 WARNING: Sub-Space-Matrix is not hermitian in DAV            5
 -1.881490284922687E-005
 WARNING: Sub-Space-Matrix is not hermitian in DAV            5
 -1.881490284922687E-005
 WARNING: Sub-Space-Matrix is not hermitian in DAV            5
 -1.881490284922687E-005
 WARNING: Sub-Space-Matrix is not hermitian in DAV            5
 -1.881490284922687E-005
 WARNING: Sub-Space-Matrix is not hermitian in DAV            5
 -1.881490284922687E-005
 WARNING: Sub-Space-Matrix is not hermitian in DAV            5
 -1.881490284922687E-005
 WARNING: Sub-Space-Matrix is not hermitian in DAV            5
 -1.881490284922687E-005
DAV:   6    -0.177300189035E+02    0.52694E+00   -0.32580E-01  1198   0.327E+00    0.389E+00
 WARNING: Sub-Space-Matrix is not hermitian in DAV            4
 -4.451927600716299E-005
 WARNING: Sub-Space-Matrix is not hermitian in DAV            5
  4.396452928836940E-005
 WARNING: Sub-Space-Matrix is not hermitian in DAV            4
 -4.451927600716299E-005
 WARNING: Sub-Space-Matrix is not hermitian in DAV            5
  4.396452928836940E-005
 WARNING: Sub-Space-Matrix is not hermitian in DAV            4
 -4.451927600716299E-005
 WARNING: Sub-Space-Matrix is not hermitian in DAV            5
  4.396452928836940E-005
 WARNING: Sub-Space-Matrix is not hermitian in DAV            4
 -4.451927600716299E-005
 WARNING: Sub-Space-Matrix is not hermitian in DAV            5
  4.396452928836940E-005
 WARNING: Sub-Space-Matrix is not hermitian in DAV            4
 -4.451927600716299E-005
 WARNING: Sub-Space-Matrix is not hermitian in DAV            5
  4.396452928836940E-005
 WARNING: Sub-Space-Matrix is not hermitian in DAV            4
 -4.451927600716299E-005
 WARNING: Sub-Space-Matrix is not hermitian in DAV            5
  4.396452928836940E-005
 WARNING: Sub-Space-Matrix is not hermitian in DAV            4
 -4.451927600716299E-005
 WARNING: Sub-Space-Matrix is not hermitian in DAV            5
  4.396452928836940E-005
 WARNING: Sub-Space-Matrix is not hermitian in DAV            4
 -4.451927600716299E-005
 WARNING: Sub-Space-Matrix is not hermitian in DAV            5
  4.396452928836940E-005
 WARNING: Sub-Space-Matrix is not hermitian in DAV            4
 -4.451927600716299E-005
 WARNING: Sub-Space-Matrix is not hermitian in DAV            5
  4.396452928836940E-005
 WARNING: Sub-Space-Matrix is not hermitian in DAV            4
 -4.451927600716299E-005
 WARNING: Sub-Space-Matrix is not hermitian in DAV            5
  4.396452928836940E-005
 WARNING: Sub-Space-Matrix is not hermitian in DAV            4
 -4.451927600716299E-005
 WARNING: Sub-Space-Matrix is not hermitian in DAV            5
  4.396452928836940E-005
 WARNING: Sub-Space-Matrix is not hermitian in DAV            4
 -4.451927600716299E-005
 WARNING: Sub-Space-Matrix is not hermitian in DAV            5
  4.396452928836940E-005
 WARNING: Sub-Space-Matrix is not hermitian in DAV            4
 -4.451927600716299E-005
 WARNING: Sub-Space-Matrix is not hermitian in DAV            5
  4.396452928836940E-005
 WARNING: Sub-Space-Matrix is not hermitian in DAV            4
 -4.451927600716299E-005
 WARNING: Sub-Space-Matrix is not hermitian in DAV            5
  4.396452928836940E-005
 WARNING: Sub-Space-Matrix is not hermitian in DAV            4
 -4.451927600716299E-005
 WARNING: Sub-Space-Matrix is not hermitian in DAV            5
  4.396452928836940E-005
 WARNING: Sub-Space-Matrix is not hermitian in DAV            4
 -4.451927600716299E-005
 WARNING: Sub-Space-Matrix is not hermitian in DAV            5
  4.396452928836940E-005
 WARNING: Sub-Space-Matrix is not hermitian in DAV            4
  1.981397991042568E-005
 WARNING: Sub-Space-Matrix is not hermitian in DAV            5
 -2.087168979189045E-005
 WARNING: Sub-Space-Matrix is not hermitian in DAV            4
  1.981397991042568E-005
 WARNING: Sub-Space-Matrix is not hermitian in DAV            5
 -2.087168979189045E-005
 WARNING: Sub-Space-Matrix is not hermitian in DAV            4
  1.981397991042568E-005
 WARNING: Sub-Space-Matrix is not hermitian in DAV            5
 -2.087168979189045E-005
 WARNING: Sub-Space-Matrix is not hermitian in DAV            4
  1.981397991042568E-005
 WARNING: Sub-Space-Matrix is not hermitian in DAV            5
 -2.087168979189045E-005
 WARNING: Sub-Space-Matrix is not hermitian in DAV            4
  1.981397991042568E-005
 WARNING: Sub-Space-Matrix is not hermitian in DAV            5
 -2.087168979189045E-005
 WARNING: Sub-Space-Matrix is not hermitian in DAV            4
  1.981397991042568E-005
 WARNING: Sub-Space-Matrix is not hermitian in DAV            5
 -2.087168979189045E-005
 WARNING: Sub-Space-Matrix is not hermitian in DAV            4
  1.981397991042568E-005
 WARNING: Sub-Space-Matrix is not hermitian in DAV            5
 -2.087168979189045E-005
 WARNING: Sub-Space-Matrix is not hermitian in DAV            4
  1.981397991042568E-005
 WARNING: Sub-Space-Matrix is not hermitian in DAV            5
 -2.087168979189045E-005
 WARNING: Sub-Space-Matrix is not hermitian in DAV            4
  1.981397991042568E-005
 WARNING: Sub-Space-Matrix is not hermitian in DAV            5
 -2.087168979189045E-005
 WARNING: Sub-Space-Matrix is not hermitian in DAV            4
  1.981397991042568E-005
 WARNING: Sub-Space-Matrix is not hermitian in DAV            5
 -2.087168979189045E-005
 WARNING: Sub-Space-Matrix is not hermitian in DAV            4
  1.981397991042568E-005
 WARNING: Sub-Space-Matrix is not hermitian in DAV            5
 -2.087168979189045E-005
 WARNING: Sub-Space-Matrix is not hermitian in DAV            4
  1.981397991042568E-005
 WARNING: Sub-Space-Matrix is not hermitian in DAV            5
 -2.087168979189045E-005
 WARNING: Sub-Space-Matrix is not hermitian in DAV            4
  1.981397991042568E-005
 WARNING: Sub-Space-Matrix is not hermitian in DAV            5
 -2.087168979189045E-005
 WARNING: Sub-Space-Matrix is not hermitian in DAV            4
  1.981397991042568E-005
 WARNING: Sub-Space-Matrix is not hermitian in DAV            5
 -2.087168979189045E-005
 WARNING: Sub-Space-Matrix is not hermitian in DAV            4
  1.981397991042568E-005
 WARNING: Sub-Space-Matrix is not hermitian in DAV            5
 -2.087168979189045E-005
 WARNING: Sub-Space-Matrix is not hermitian in DAV            4
  1.981397991042568E-005
 WARNING: Sub-Space-Matrix is not hermitian in DAV            5
 -2.087168979189045E-005
 WARNING: Sub-Space-Matrix is not hermitian in DAV            4
  1.711253793824412E-005
 WARNING: Sub-Space-Matrix is not hermitian in DAV            5
 -1.779977770194550E-005
 WARNING: Sub-Space-Matrix is not hermitian in DAV            4
  1.711253793824412E-005
 WARNING: Sub-Space-Matrix is not hermitian in DAV            5
 -1.779977770194550E-005
 WARNING: Sub-Space-Matrix is not hermitian in DAV            4
  1.711253793824412E-005
 WARNING: Sub-Space-Matrix is not hermitian in DAV            5
 -1.779977770194550E-005
 WARNING: Sub-Space-Matrix is not hermitian in DAV            4
  1.711253793824412E-005
 WARNING: Sub-Space-Matrix is not hermitian in DAV            5
 -1.779977770194550E-005
 WARNING: Sub-Space-Matrix is not hermitian in DAV            4
  1.711253793824412E-005
 WARNING: Sub-Space-Matrix is not hermitian in DAV            5
 -1.779977770194550E-005
 WARNING: Sub-Space-Matrix is not hermitian in DAV            4
  1.711253793824412E-005
 WARNING: Sub-Space-Matrix is not hermitian in DAV            5
 -1.779977770194550E-005
 WARNING: Sub-Space-Matrix is not hermitian in DAV            4
  1.711253793824412E-005
 WARNING: Sub-Space-Matrix is not hermitian in DAV            5
 -1.779977770194550E-005
 WARNING: Sub-Space-Matrix is not hermitian in DAV            4
  1.711253793824412E-005
 WARNING: Sub-Space-Matrix is not hermitian in DAV            5
 -1.779977770194550E-005
 WARNING: Sub-Space-Matrix is not hermitian in DAV            4
  1.711253793824412E-005
 WARNING: Sub-Space-Matrix is not hermitian in DAV            5
 -1.779977770194550E-005
 WARNING: Sub-Space-Matrix is not hermitian in DAV            4
  1.711253793824412E-005
 WARNING: Sub-Space-Matrix is not hermitian in DAV            5
 -1.779977770194550E-005
 WARNING: Sub-Space-Matrix is not hermitian in DAV            4
  1.711253793824412E-005
 WARNING: Sub-Space-Matrix is not hermitian in DAV            5
 -1.779977770194550E-005
 WARNING: Sub-Space-Matrix is not hermitian in DAV            4
  1.711253793824412E-005
 WARNING: Sub-Space-Matrix is not hermitian in DAV            5
 -1.779977770194550E-005
 WARNING: Sub-Space-Matrix is not hermitian in DAV            4
  1.711253793824412E-005
 WARNING: Sub-Space-Matrix is not hermitian in DAV            5
 -1.779977770194550E-005
 WARNING: Sub-Space-Matrix is not hermitian in DAV            4
  1.711253793824412E-005
 WARNING: Sub-Space-Matrix is not hermitian in DAV            5
 -1.779977770194550E-005
 WARNING: Sub-Space-Matrix is not hermitian in DAV            4
  1.711253793824412E-005
 WARNING: Sub-Space-Matrix is not hermitian in DAV            5
 -1.779977770194550E-005
 WARNING: Sub-Space-Matrix is not hermitian in DAV            4
  1.711253793824412E-005
 WARNING: Sub-Space-Matrix is not hermitian in DAV            5
 -1.779977770194550E-005
 WARNING: Sub-Space-Matrix is not hermitian in DAV            5
 -1.517967544022812E-005
 WARNING: Sub-Space-Matrix is not hermitian in DAV            5
 -1.517967544022812E-005
 WARNING: Sub-Space-Matrix is not hermitian in DAV            5
 -1.517967544022812E-005
 WARNING: Sub-Space-Matrix is not hermitian in DAV            5
 -1.517967544022812E-005
 WARNING: Sub-Space-Matrix is not hermitian in DAV            5
 -1.517967544022812E-005
 WARNING: Sub-Space-Matrix is not hermitian in DAV            5
 -1.517967544022812E-005
 WARNING: Sub-Space-Matrix is not hermitian in DAV            5
 -1.517967544022812E-005
 WARNING: Sub-Space-Matrix is not hermitian in DAV            5
 -1.517967544022812E-005
 WARNING: Sub-Space-Matrix is not hermitian in DAV            5
 -1.517967544022812E-005
 WARNING: Sub-Space-Matrix is not hermitian in DAV            5
 -1.517967544022812E-005
 WARNING: Sub-Space-Matrix is not hermitian in DAV            5
 -1.517967544022812E-005
 WARNING: Sub-Space-Matrix is not hermitian in DAV            5
 -1.517967544022812E-005
 WARNING: Sub-Space-Matrix is not hermitian in DAV            5
 -1.517967544022812E-005
 WARNING: Sub-Space-Matrix is not hermitian in DAV            5
 -1.517967544022812E-005
 WARNING: Sub-Space-Matrix is not hermitian in DAV            5
 -1.517967544022812E-005
 WARNING: Sub-Space-Matrix is not hermitian in DAV            5
 -1.517967544022812E-005
 WARNING: Sub-Space-Matrix is not hermitian in DAV            5
 -1.340652749161530E-005
 WARNING: Sub-Space-Matrix is not hermitian in DAV            5
 -1.340652749161530E-005
 WARNING: Sub-Space-Matrix is not hermitian in DAV            5
 -1.340652749161530E-005
 WARNING: Sub-Space-Matrix is not hermitian in DAV            5
 -1.340652749161530E-005
 WARNING: Sub-Space-Matrix is not hermitian in DAV            5
 -1.340652749161530E-005
 WARNING: Sub-Space-Matrix is not hermitian in DAV            5
 -1.340652749161530E-005
 WARNING: Sub-Space-Matrix is not hermitian in DAV            5
 -1.340652749161530E-005
 WARNING: Sub-Space-Matrix is not hermitian in DAV            5
 -1.340652749161530E-005
 WARNING: Sub-Space-Matrix is not hermitian in DAV            5
 -1.340652749161530E-005
 WARNING: Sub-Space-Matrix is not hermitian in DAV            5
 -1.340652749161530E-005
 WARNING: Sub-Space-Matrix is not hermitian in DAV            5
 -1.340652749161530E-005
 WARNING: Sub-Space-Matrix is not hermitian in DAV            5
 -1.340652749161530E-005
 WARNING: Sub-Space-Matrix is not hermitian in DAV            5
 -1.340652749161530E-005
 WARNING: Sub-Space-Matrix is not hermitian in DAV            5
 -1.340652749161530E-005
 WARNING: Sub-Space-Matrix is not hermitian in DAV            5
 -1.340652749161530E-005
 WARNING: Sub-Space-Matrix is not hermitian in DAV            5
 -1.340652749161530E-005
 WARNING: Sub-Space-Matrix is not hermitian in DAV            5
 -1.234262961810959E-005
 WARNING: Sub-Space-Matrix is not hermitian in DAV            5
 -1.234262961810959E-005
 WARNING: Sub-Space-Matrix is not hermitian in DAV            5
 -1.234262961810959E-005
 WARNING: Sub-Space-Matrix is not hermitian in DAV            5
 -1.234262961810959E-005
 WARNING: Sub-Space-Matrix is not hermitian in DAV            5
 -1.234262961810959E-005
 WARNING: Sub-Space-Matrix is not hermitian in DAV            5
 -1.234262961810959E-005
 WARNING: Sub-Space-Matrix is not hermitian in DAV            5
 -1.234262961810959E-005
 WARNING: Sub-Space-Matrix is not hermitian in DAV            5
 -1.234262961810959E-005
 WARNING: Sub-Space-Matrix is not hermitian in DAV            5
 -1.234262961810959E-005
 WARNING: Sub-Space-Matrix is not hermitian in DAV            5
 -1.234262961810959E-005
 WARNING: Sub-Space-Matrix is not hermitian in DAV            5
 -1.234262961810959E-005
 WARNING: Sub-Space-Matrix is not hermitian in DAV            5
 -1.234262961810959E-005
 WARNING: Sub-Space-Matrix is not hermitian in DAV            5
 -1.234262961810959E-005
 WARNING: Sub-Space-Matrix is not hermitian in DAV            5
 -1.234262961810959E-005
 WARNING: Sub-Space-Matrix is not hermitian in DAV            5
 -1.234262961810959E-005
 WARNING: Sub-Space-Matrix is not hermitian in DAV            5
 -1.234262961810959E-005
 WARNING: Sub-Space-Matrix is not hermitian in DAV            5
 -1.184980066536886E-005
 WARNING: Sub-Space-Matrix is not hermitian in DAV            5
 -1.184980066536886E-005
 WARNING: Sub-Space-Matrix is not hermitian in DAV            5
 -1.184980066536886E-005
 WARNING: Sub-Space-Matrix is not hermitian in DAV            5
 -1.184980066536886E-005
 WARNING: Sub-Space-Matrix is not hermitian in DAV            5
 -1.184980066536886E-005
 WARNING: Sub-Space-Matrix is not hermitian in DAV            5
 -1.184980066536886E-005
 WARNING: Sub-Space-Matrix is not hermitian in DAV            5
 -1.184980066536886E-005
 WARNING: Sub-Space-Matrix is not hermitian in DAV            5
 -1.184980066536886E-005
 WARNING: Sub-Space-Matrix is not hermitian in DAV            5
 -1.184980066536886E-005
 WARNING: Sub-Space-Matrix is not hermitian in DAV            5
 -1.184980066536886E-005
 WARNING: Sub-Space-Matrix is not hermitian in DAV            5
 -1.184980066536886E-005
 WARNING: Sub-Space-Matrix is not hermitian in DAV            5
 -1.184980066536886E-005
 WARNING: Sub-Space-Matrix is not hermitian in DAV            5
 -1.184980066536886E-005
 WARNING: Sub-Space-Matrix is not hermitian in DAV            5
 -1.184980066536886E-005
 WARNING: Sub-Space-Matrix is not hermitian in DAV            5
 -1.184980066536886E-005
 WARNING: Sub-Space-Matrix is not hermitian in DAV            5
 -1.184980066536886E-005
 WARNING: Sub-Space-Matrix is not hermitian in DAV            4
  4.216977560142306E-005
 WARNING: Sub-Space-Matrix is not hermitian in DAV            5
 -4.633333370029090E-005
 WARNING: Sub-Space-Matrix is not hermitian in DAV            4
  4.216977560142306E-005
 WARNING: Sub-Space-Matrix is not hermitian in DAV            5
 -4.633333370029090E-005
 WARNING: Sub-Space-Matrix is not hermitian in DAV            4
  4.216977560142306E-005
 WARNING: Sub-Space-Matrix is not hermitian in DAV            5
 -4.633333370029090E-005
 WARNING: Sub-Space-Matrix is not hermitian in DAV            4
  4.216977560142306E-005
 WARNING: Sub-Space-Matrix is not hermitian in DAV            5
 -4.633333370029090E-005
 WARNING: Sub-Space-Matrix is not hermitian in DAV            4
  4.216977560142306E-005
 WARNING: Sub-Space-Matrix is not hermitian in DAV            5
 -4.633333370029090E-005
 WARNING: Sub-Space-Matrix is not hermitian in DAV            4
  4.216977560142306E-005
 WARNING: Sub-Space-Matrix is not hermitian in DAV            5
 -4.633333370029090E-005
 WARNING: Sub-Space-Matrix is not hermitian in DAV            4
  4.216977560142306E-005
 WARNING: Sub-Space-Matrix is not hermitian in DAV            5
 -4.633333370029090E-005
 WARNING: Sub-Space-Matrix is not hermitian in DAV            4
  4.216977560142306E-005
 WARNING: Sub-Space-Matrix is not hermitian in DAV            5
 -4.633333370029090E-005
 WARNING: Sub-Space-Matrix is not hermitian in DAV            4
  4.216977560142306E-005
 WARNING: Sub-Space-Matrix is not hermitian in DAV            5
 -4.633333370029090E-005
 WARNING: Sub-Space-Matrix is not hermitian in DAV            4
  4.216977560142306E-005
 WARNING: Sub-Space-Matrix is not hermitian in DAV            5
 -4.633333370029090E-005
 WARNING: Sub-Space-Matrix is not hermitian in DAV            4
  4.216977560142306E-005
 WARNING: Sub-Space-Matrix is not hermitian in DAV            5
 -4.633333370029090E-005
 WARNING: Sub-Space-Matrix is not hermitian in DAV            4
  4.216977560142306E-005
 WARNING: Sub-Space-Matrix is not hermitian in DAV            5
 -4.633333370029090E-005
 WARNING: Sub-Space-Matrix is not hermitian in DAV            4
  4.216977560142306E-005
 WARNING: Sub-Space-Matrix is not hermitian in DAV            5
 -4.633333370029090E-005
 WARNING: Sub-Space-Matrix is not hermitian in DAV            4
  4.216977560142306E-005
 WARNING: Sub-Space-Matrix is not hermitian in DAV            5
 -4.633333370029090E-005
 WARNING: Sub-Space-Matrix is not hermitian in DAV            4
  4.216977560142306E-005
 WARNING: Sub-Space-Matrix is not hermitian in DAV            5
 -4.633333370029090E-005
 WARNING: Sub-Space-Matrix is not hermitian in DAV            4
  4.216977560142306E-005
 WARNING: Sub-Space-Matrix is not hermitian in DAV            5
 -4.633333370029090E-005
 WARNING: Sub-Space-Matrix is not hermitian in DAV            4
  3.425600975314222E-005
 WARNING: Sub-Space-Matrix is not hermitian in DAV            5
 -4.044610357074941E-005
 WARNING: Sub-Space-Matrix is not hermitian in DAV            4
  3.425600975314222E-005
 WARNING: Sub-Space-Matrix is not hermitian in DAV            5
 -4.044610357074941E-005
 WARNING: Sub-Space-Matrix is not hermitian in DAV            4
  3.425600975314222E-005
 WARNING: Sub-Space-Matrix is not hermitian in DAV            5
 -4.044610357074941E-005
 WARNING: Sub-Space-Matrix is not hermitian in DAV            4
  3.425600975314222E-005
 WARNING: Sub-Space-Matrix is not hermitian in DAV            5
 -4.044610357074941E-005
 WARNING: Sub-Space-Matrix is not hermitian in DAV            4
  3.425600975314222E-005
 WARNING: Sub-Space-Matrix is not hermitian in DAV            5
 -4.044610357074941E-005
 WARNING: Sub-Space-Matrix is not hermitian in DAV            4
  3.425600975314222E-005
 WARNING: Sub-Space-Matrix is not hermitian in DAV            5
 -4.044610357074941E-005
 WARNING: Sub-Space-Matrix is not hermitian in DAV            4
  3.425600975314222E-005
 WARNING: Sub-Space-Matrix is not hermitian in DAV            5
 -4.044610357074941E-005
 WARNING: Sub-Space-Matrix is not hermitian in DAV            4
  3.425600975314222E-005
 WARNING: Sub-Space-Matrix is not hermitian in DAV            5
 -4.044610357074941E-005
 WARNING: Sub-Space-Matrix is not hermitian in DAV            4
  3.425600975314222E-005
 WARNING: Sub-Space-Matrix is not hermitian in DAV            5
 -4.044610357074941E-005
 WARNING: Sub-Space-Matrix is not hermitian in DAV            4
  3.425600975314222E-005
 WARNING: Sub-Space-Matrix is not hermitian in DAV            5
 -4.044610357074941E-005
 WARNING: Sub-Space-Matrix is not hermitian in DAV            4
  3.425600975314222E-005
 WARNING: Sub-Space-Matrix is not hermitian in DAV            5
 -4.044610357074941E-005
 WARNING: Sub-Space-Matrix is not hermitian in DAV            4
  3.425600975314222E-005
 WARNING: Sub-Space-Matrix is not hermitian in DAV            5
 -4.044610357074941E-005
 WARNING: Sub-Space-Matrix is not hermitian in DAV            4
  3.425600975314222E-005
 WARNING: Sub-Space-Matrix is not hermitian in DAV            5
 -4.044610357074941E-005
 WARNING: Sub-Space-Matrix is not hermitian in DAV            4
  3.425600975314222E-005
 WARNING: Sub-Space-Matrix is not hermitian in DAV            5
 -4.044610357074941E-005
 WARNING: Sub-Space-Matrix is not hermitian in DAV            4
  3.425600975314222E-005
 WARNING: Sub-Space-Matrix is not hermitian in DAV            5
 -4.044610357074941E-005
 WARNING: Sub-Space-Matrix is not hermitian in DAV            4
  3.425600975314222E-005
 WARNING: Sub-Space-Matrix is not hermitian in DAV            5
 -4.044610357074941E-005
 WARNING: Sub-Space-Matrix is not hermitian in DAV            5
 -3.180351676126966E-005
 WARNING: Sub-Space-Matrix is not hermitian in DAV            5
 -3.180351676126966E-005
 WARNING: Sub-Space-Matrix is not hermitian in DAV            5
 -3.180351676126966E-005
 WARNING: Sub-Space-Matrix is not hermitian in DAV            5
 -3.180351676126966E-005
 WARNING: Sub-Space-Matrix is not hermitian in DAV            5
 -3.180351676126966E-005
 WARNING: Sub-Space-Matrix is not hermitian in DAV            5
 -3.180351676126966E-005
 WARNING: Sub-Space-Matrix is not hermitian in DAV            5
 -3.180351676126966E-005
 WARNING: Sub-Space-Matrix is not hermitian in DAV            5
 -3.180351676126966E-005
 WARNING: Sub-Space-Matrix is not hermitian in DAV            5
 -3.180351676126966E-005
 WARNING: Sub-Space-Matrix is not hermitian in DAV            5
 -3.180351676126966E-005
 WARNING: Sub-Space-Matrix is not hermitian in DAV            5
 -3.180351676126966E-005
 WARNING: Sub-Space-Matrix is not hermitian in DAV            5
 -3.180351676126966E-005
 WARNING: Sub-Space-Matrix is not hermitian in DAV            5
 -3.180351676126966E-005
 WARNING: Sub-Space-Matrix is not hermitian in DAV            5
 -3.180351676126966E-005
 WARNING: Sub-Space-Matrix is not hermitian in DAV            5
 -3.180351676126966E-005
 WARNING: Sub-Space-Matrix is not hermitian in DAV            5
 -3.180351676126966E-005
 WARNING: Sub-Space-Matrix is not hermitian in DAV            5
 -2.468903503490936E-005
 WARNING: Sub-Space-Matrix is not hermitian in DAV            5
 -2.468903503490936E-005
 WARNING: Sub-Space-Matrix is not hermitian in DAV            5
 -2.468903503490936E-005
 WARNING: Sub-Space-Matrix is not hermitian in DAV            5
 -2.468903503490936E-005
 WARNING: Sub-Space-Matrix is not hermitian in DAV            5
 -2.468903503490936E-005
 WARNING: Sub-Space-Matrix is not hermitian in DAV            5
 -2.468903503490936E-005
 WARNING: Sub-Space-Matrix is not hermitian in DAV            5
 -2.468903503490936E-005
 WARNING: Sub-Space-Matrix is not hermitian in DAV            5
 -2.468903503490936E-005
 WARNING: Sub-Space-Matrix is not hermitian in DAV            5
 -2.468903503490936E-005
 WARNING: Sub-Space-Matrix is not hermitian in DAV            5
 -2.468903503490936E-005
 WARNING: Sub-Space-Matrix is not hermitian in DAV            5
 -2.468903503490936E-005
 WARNING: Sub-Space-Matrix is not hermitian in DAV            5
 -2.468903503490936E-005
 WARNING: Sub-Space-Matrix is not hermitian in DAV            5
 -2.468903503490936E-005
 WARNING: Sub-Space-Matrix is not hermitian in DAV            5
 -2.468903503490936E-005
 WARNING: Sub-Space-Matrix is not hermitian in DAV            5
 -2.468903503490936E-005
 WARNING: Sub-Space-Matrix is not hermitian in DAV            5
 -2.468903503490936E-005
 WARNING: Sub-Space-Matrix is not hermitian in DAV            5
 -1.855479804306329E-005
 WARNING: Sub-Space-Matrix is not hermitian in DAV            5
 -1.855479804306329E-005
 WARNING: Sub-Space-Matrix is not hermitian in DAV            5
 -1.855479804306329E-005
 WARNING: Sub-Space-Matrix is not hermitian in DAV            5
 -1.855479804306329E-005
 WARNING: Sub-Space-Matrix is not hermitian in DAV            5
 -1.855479804306329E-005
 WARNING: Sub-Space-Matrix is not hermitian in DAV            5
 -1.855479804306329E-005
 WARNING: Sub-Space-Matrix is not hermitian in DAV            5
 -1.855479804306329E-005
 WARNING: Sub-Space-Matrix is not hermitian in DAV            5
 -1.855479804306329E-005
 WARNING: Sub-Space-Matrix is not hermitian in DAV            5
 -1.855479804306329E-005
 WARNING: Sub-Space-Matrix is not hermitian in DAV            5
 -1.855479804306329E-005
 WARNING: Sub-Space-Matrix is not hermitian in DAV            5
 -1.855479804306329E-005
 WARNING: Sub-Space-Matrix is not hermitian in DAV            5
 -1.855479804306329E-005
 WARNING: Sub-Space-Matrix is not hermitian in DAV            5
 -1.855479804306329E-005
 WARNING: Sub-Space-Matrix is not hermitian in DAV            5
 -1.855479804306329E-005
 WARNING: Sub-Space-Matrix is not hermitian in DAV            5
 -1.855479804306329E-005
 WARNING: Sub-Space-Matrix is not hermitian in DAV            5
 -1.855479804306329E-005
 WARNING: Sub-Space-Matrix is not hermitian in DAV            5
 -1.266665531917153E-005
 WARNING: Sub-Space-Matrix is not hermitian in DAV            5
 -1.266665531917153E-005
 WARNING: Sub-Space-Matrix is not hermitian in DAV            5
 -1.266665531917153E-005
 WARNING: Sub-Space-Matrix is not hermitian in DAV            5
 -1.266665531917153E-005
 WARNING: Sub-Space-Matrix is not hermitian in DAV            5
 -1.266665531917153E-005
 WARNING: Sub-Space-Matrix is not hermitian in DAV            5
 -1.266665531917153E-005
 WARNING: Sub-Space-Matrix is not hermitian in DAV            5
 -1.266665531917153E-005
 WARNING: Sub-Space-Matrix is not hermitian in DAV            5
 -1.266665531917153E-005
 WARNING: Sub-Space-Matrix is not hermitian in DAV            5
 -1.266665531917153E-005
 WARNING: Sub-Space-Matrix is not hermitian in DAV            5
 -1.266665531917153E-005
 WARNING: Sub-Space-Matrix is not hermitian in DAV            5
 -1.266665531917153E-005
 WARNING: Sub-Space-Matrix is not hermitian in DAV            5
 -1.266665531917153E-005
 WARNING: Sub-Space-Matrix is not hermitian in DAV            5
 -1.266665531917153E-005
 WARNING: Sub-Space-Matrix is not hermitian in DAV            5
 -1.266665531917153E-005
 WARNING: Sub-Space-Matrix is not hermitian in DAV            5
 -1.266665531917153E-005
 WARNING: Sub-Space-Matrix is not hermitian in DAV            5
 -1.266665531917153E-005
 WARNING: Sub-Space-Matrix is not hermitian in DAV            4
  3.568244734919646E-005
 WARNING: Sub-Space-Matrix is not hermitian in DAV            5
 -4.702335503183923E-005
 WARNING: Sub-Space-Matrix is not hermitian in DAV            4
  3.568244734919646E-005
 WARNING: Sub-Space-Matrix is not hermitian in DAV            5
 -4.702335503183923E-005
 WARNING: Sub-Space-Matrix is not hermitian in DAV            4
  3.568244734919646E-005
 WARNING: Sub-Space-Matrix is not hermitian in DAV            5
 -4.702335503183923E-005
 WARNING: Sub-Space-Matrix is not hermitian in DAV            4
  3.568244734919646E-005
 WARNING: Sub-Space-Matrix is not hermitian in DAV            5
 -4.702335503183923E-005
 WARNING: Sub-Space-Matrix is not hermitian in DAV            4
  3.568244734919646E-005
 WARNING: Sub-Space-Matrix is not hermitian in DAV            5
 -4.702335503183923E-005
 WARNING: Sub-Space-Matrix is not hermitian in DAV            4
  3.568244734919646E-005
 WARNING: Sub-Space-Matrix is not hermitian in DAV            5
 -4.702335503183923E-005
 WARNING: Sub-Space-Matrix is not hermitian in DAV            4
  3.568244734919646E-005
 WARNING: Sub-Space-Matrix is not hermitian in DAV            5
 -4.702335503183923E-005
 WARNING: Sub-Space-Matrix is not hermitian in DAV            4
  3.568244734919646E-005
 WARNING: Sub-Space-Matrix is not hermitian in DAV            5
 -4.702335503183923E-005
 WARNING: Sub-Space-Matrix is not hermitian in DAV            4
  3.568244734919646E-005
 WARNING: Sub-Space-Matrix is not hermitian in DAV            5
 -4.702335503183923E-005
 WARNING: Sub-Space-Matrix is not hermitian in DAV            4
  3.568244734919646E-005
 WARNING: Sub-Space-Matrix is not hermitian in DAV            5
 -4.702335503183923E-005
 WARNING: Sub-Space-Matrix is not hermitian in DAV            4
  3.568244734919646E-005
 WARNING: Sub-Space-Matrix is not hermitian in DAV            5
 -4.702335503183923E-005
 WARNING: Sub-Space-Matrix is not hermitian in DAV            4
  3.568244734919646E-005
 WARNING: Sub-Space-Matrix is not hermitian in DAV            5
 -4.702335503183923E-005
 WARNING: Sub-Space-Matrix is not hermitian in DAV            4
  3.568244734919646E-005
 WARNING: Sub-Space-Matrix is not hermitian in DAV            5
 -4.702335503183923E-005
 WARNING: Sub-Space-Matrix is not hermitian in DAV            4
  3.568244734919646E-005
 WARNING: Sub-Space-Matrix is not hermitian in DAV            5
 -4.702335503183923E-005
 WARNING: Sub-Space-Matrix is not hermitian in DAV            4
  3.568244734919646E-005
 WARNING: Sub-Space-Matrix is not hermitian in DAV            5
 -4.702335503183923E-005
 WARNING: Sub-Space-Matrix is not hermitian in DAV            4
  3.568244734919646E-005
 WARNING: Sub-Space-Matrix is not hermitian in DAV            5
 -4.702335503183923E-005
 WARNING: Sub-Space-Matrix is not hermitian in DAV            5
 -4.219169943527995E-005
 WARNING: Sub-Space-Matrix is not hermitian in DAV            5
 -4.219169943527995E-005
 WARNING: Sub-Space-Matrix is not hermitian in DAV            5
 -4.219169943527995E-005
 WARNING: Sub-Space-Matrix is not hermitian in DAV            5
 -4.219169943527995E-005
 WARNING: Sub-Space-Matrix is not hermitian in DAV            5
 -4.219169943527995E-005
 WARNING: Sub-Space-Matrix is not hermitian in DAV            5
 -4.219169943527995E-005
 WARNING: Sub-Space-Matrix is not hermitian in DAV            5
 -4.219169943527995E-005
 WARNING: Sub-Space-Matrix is not hermitian in DAV            5
 -4.219169943527995E-005
 WARNING: Sub-Space-Matrix is not hermitian in DAV            5
 -4.219169943527995E-005
 WARNING: Sub-Space-Matrix is not hermitian in DAV            5
 -4.219169943527995E-005
 WARNING: Sub-Space-Matrix is not hermitian in DAV            5
 -4.219169943527995E-005
 WARNING: Sub-Space-Matrix is not hermitian in DAV            5
 -4.219169943527995E-005
 WARNING: Sub-Space-Matrix is not hermitian in DAV            5
 -4.219169943527995E-005
 WARNING: Sub-Space-Matrix is not hermitian in DAV            5
 -4.219169943527995E-005
 WARNING: Sub-Space-Matrix is not hermitian in DAV            5
 -4.219169943527995E-005
 WARNING: Sub-Space-Matrix is not hermitian in DAV            5
 -4.219169943527995E-005
 WARNING: Sub-Space-Matrix is not hermitian in DAV            5
 -3.259928736564897E-005
 WARNING: Sub-Space-Matrix is not hermitian in DAV            5
 -3.259928736564897E-005
 WARNING: Sub-Space-Matrix is not hermitian in DAV            5
 -3.259928736564897E-005
 WARNING: Sub-Space-Matrix is not hermitian in DAV            5
 -3.259928736564897E-005
 WARNING: Sub-Space-Matrix is not hermitian in DAV            5
 -3.259928736564897E-005
 WARNING: Sub-Space-Matrix is not hermitian in DAV            5
 -3.259928736564897E-005
 WARNING: Sub-Space-Matrix is not hermitian in DAV            5
 -3.259928736564897E-005
 WARNING: Sub-Space-Matrix is not hermitian in DAV            5
 -3.259928736564897E-005
 WARNING: Sub-Space-Matrix is not hermitian in DAV            5
 -3.259928736564897E-005
 WARNING: Sub-Space-Matrix is not hermitian in DAV            5
 -3.259928736564897E-005
 WARNING: Sub-Space-Matrix is not hermitian in DAV            5
 -3.259928736564897E-005
 WARNING: Sub-Space-Matrix is not hermitian in DAV            5
 -3.259928736564897E-005
 WARNING: Sub-Space-Matrix is not hermitian in DAV            5
 -3.259928736564897E-005
 WARNING: Sub-Space-Matrix is not hermitian in DAV            5
 -3.259928736564897E-005
 WARNING: Sub-Space-Matrix is not hermitian in DAV            5
 -3.259928736564897E-005
 WARNING: Sub-Space-Matrix is not hermitian in DAV            5
 -3.259928736564897E-005
 WARNING: Sub-Space-Matrix is not hermitian in DAV            5
 -2.060241148271771E-005
 WARNING: Sub-Space-Matrix is not hermitian in DAV            5
 -2.060241148271771E-005
 WARNING: Sub-Space-Matrix is not hermitian in DAV            5
 -2.060241148271771E-005
 WARNING: Sub-Space-Matrix is not hermitian in DAV            5
 -2.060241148271771E-005
 WARNING: Sub-Space-Matrix is not hermitian in DAV            5
 -2.060241148271771E-005
 WARNING: Sub-Space-Matrix is not hermitian in DAV            5
 -2.060241148271771E-005
 WARNING: Sub-Space-Matrix is not hermitian in DAV            5
 -2.060241148271771E-005
 WARNING: Sub-Space-Matrix is not hermitian in DAV            5
 -2.060241148271771E-005
 WARNING: Sub-Space-Matrix is not hermitian in DAV            5
 -2.060241148271771E-005
 WARNING: Sub-Space-Matrix is not hermitian in DAV            5
 -2.060241148271771E-005
 WARNING: Sub-Space-Matrix is not hermitian in DAV            5
 -2.060241148271771E-005
 WARNING: Sub-Space-Matrix is not hermitian in DAV            5
 -2.060241148271771E-005
 WARNING: Sub-Space-Matrix is not hermitian in DAV            5
 -2.060241148271771E-005
 WARNING: Sub-Space-Matrix is not hermitian in DAV            5
 -2.060241148271771E-005
 WARNING: Sub-Space-Matrix is not hermitian in DAV            5
 -2.060241148271771E-005
 WARNING: Sub-Space-Matrix is not hermitian in DAV            5
 -2.060241148271771E-005
 WARNING: Sub-Space-Matrix is not hermitian in DAV            5
 -4.474783182337928E-005
 WARNING: Sub-Space-Matrix is not hermitian in DAV            5
 -4.474783182337928E-005
 WARNING: Sub-Space-Matrix is not hermitian in DAV            5
 -4.474783182337928E-005
 WARNING: Sub-Space-Matrix is not hermitian in DAV            5
 -4.474783182337928E-005
 WARNING: Sub-Space-Matrix is not hermitian in DAV            5
 -4.474783182337928E-005
 WARNING: Sub-Space-Matrix is not hermitian in DAV            5
 -4.474783182337928E-005
 WARNING: Sub-Space-Matrix is not hermitian in DAV            5
 -4.474783182337928E-005
 WARNING: Sub-Space-Matrix is not hermitian in DAV            5
 -4.474783182337928E-005
 WARNING: Sub-Space-Matrix is not hermitian in DAV            5
 -4.474783182337928E-005
 WARNING: Sub-Space-Matrix is not hermitian in DAV            5
 -4.474783182337928E-005
 WARNING: Sub-Space-Matrix is not hermitian in DAV            5
 -4.474783182337928E-005
 WARNING: Sub-Space-Matrix is not hermitian in DAV            5
 -4.474783182337928E-005
 WARNING: Sub-Space-Matrix is not hermitian in DAV            5
 -4.474783182337928E-005
 WARNING: Sub-Space-Matrix is not hermitian in DAV            5
 -4.474783182337928E-005
 WARNING: Sub-Space-Matrix is not hermitian in DAV            5
 -4.474783182337928E-005
 WARNING: Sub-Space-Matrix is not hermitian in DAV            5
 -4.474783182337928E-005
 WARNING: Sub-Space-Matrix is not hermitian in DAV            5
 -3.648241688785853E-005
 WARNING: Sub-Space-Matrix is not hermitian in DAV            5
 -3.648241688785853E-005
 WARNING: Sub-Space-Matrix is not hermitian in DAV            5
 -3.648241688785853E-005
 WARNING: Sub-Space-Matrix is not hermitian in DAV            5
 -3.648241688785853E-005
 WARNING: Sub-Space-Matrix is not hermitian in DAV            5
 -3.648241688785853E-005
 WARNING: Sub-Space-Matrix is not hermitian in DAV            5
 -3.648241688785853E-005
 WARNING: Sub-Space-Matrix is not hermitian in DAV            5
 -3.648241688785853E-005
 WARNING: Sub-Space-Matrix is not hermitian in DAV            5
 -3.648241688785853E-005
 WARNING: Sub-Space-Matrix is not hermitian in DAV            5
 -3.648241688785853E-005
 WARNING: Sub-Space-Matrix is not hermitian in DAV            5
 -3.648241688785853E-005
 WARNING: Sub-Space-Matrix is not hermitian in DAV            5
 -3.648241688785853E-005
 WARNING: Sub-Space-Matrix is not hermitian in DAV            5
 -3.648241688785853E-005
 WARNING: Sub-Space-Matrix is not hermitian in DAV            5
 -3.648241688785853E-005
 WARNING: Sub-Space-Matrix is not hermitian in DAV            5
 -3.648241688785853E-005
 WARNING: Sub-Space-Matrix is not hermitian in DAV            5
 -3.648241688785853E-005
 WARNING: Sub-Space-Matrix is not hermitian in DAV            5
 -3.648241688785853E-005
 WARNING: Sub-Space-Matrix is not hermitian in DAV            5
 -2.256372012308509E-005
 WARNING: Sub-Space-Matrix is not hermitian in DAV            5
 -2.256372012308509E-005
 WARNING: Sub-Space-Matrix is not hermitian in DAV            5
 -2.256372012308509E-005
 WARNING: Sub-Space-Matrix is not hermitian in DAV            5
 -2.256372012308509E-005
 WARNING: Sub-Space-Matrix is not hermitian in DAV            5
 -2.256372012308509E-005
 WARNING: Sub-Space-Matrix is not hermitian in DAV            5
 -2.256372012308509E-005
 WARNING: Sub-Space-Matrix is not hermitian in DAV            5
 -2.256372012308509E-005
 WARNING: Sub-Space-Matrix is not hermitian in DAV            5
 -2.256372012308509E-005
 WARNING: Sub-Space-Matrix is not hermitian in DAV            5
 -2.256372012308509E-005
 WARNING: Sub-Space-Matrix is not hermitian in DAV            5
 -2.256372012308509E-005
 WARNING: Sub-Space-Matrix is not hermitian in DAV            5
 -2.256372012308509E-005
 WARNING: Sub-Space-Matrix is not hermitian in DAV            5
 -2.256372012308509E-005
 WARNING: Sub-Space-Matrix is not hermitian in DAV            5
 -2.256372012308509E-005
 WARNING: Sub-Space-Matrix is not hermitian in DAV            5
 -2.256372012308509E-005
 WARNING: Sub-Space-Matrix is not hermitian in DAV            5
 -2.256372012308509E-005
 WARNING: Sub-Space-Matrix is not hermitian in DAV            5
 -2.256372012308509E-005
 WARNING: Sub-Space-Matrix is not hermitian in DAV            4
 -4.479854713682523E-005
 WARNING: Sub-Space-Matrix is not hermitian in DAV            5
  4.424297964618506E-005
 WARNING: Sub-Space-Matrix is not hermitian in DAV            4
 -4.479854713682523E-005
 WARNING: Sub-Space-Matrix is not hermitian in DAV            5
  4.424297964618506E-005
 WARNING: Sub-Space-Matrix is not hermitian in DAV            4
 -4.479854713682523E-005
 WARNING: Sub-Space-Matrix is not hermitian in DAV            5
  4.424297964618506E-005
 WARNING: Sub-Space-Matrix is not hermitian in DAV            4
 -4.479854713682523E-005
 WARNING: Sub-Space-Matrix is not hermitian in DAV            5
  4.424297964618506E-005
 WARNING: Sub-Space-Matrix is not hermitian in DAV            4
 -4.479854713682523E-005
 WARNING: Sub-Space-Matrix is not hermitian in DAV            5
  4.424297964618506E-005
 WARNING: Sub-Space-Matrix is not hermitian in DAV            4
 -4.479854713682523E-005
 WARNING: Sub-Space-Matrix is not hermitian in DAV            5
  4.424297964618506E-005
 WARNING: Sub-Space-Matrix is not hermitian in DAV            4
 -4.479854713682523E-005
 WARNING: Sub-Space-Matrix is not hermitian in DAV            5
  4.424297964618506E-005
 WARNING: Sub-Space-Matrix is not hermitian in DAV            4
 -4.479854713682523E-005
 WARNING: Sub-Space-Matrix is not hermitian in DAV            5
  4.424297964618506E-005
 WARNING: Sub-Space-Matrix is not hermitian in DAV            4
 -4.479854713682523E-005
 WARNING: Sub-Space-Matrix is not hermitian in DAV            5
  4.424297964618506E-005
 WARNING: Sub-Space-Matrix is not hermitian in DAV            4
 -4.479854713682523E-005
 WARNING: Sub-Space-Matrix is not hermitian in DAV            5
  4.424297964618506E-005
 WARNING: Sub-Space-Matrix is not hermitian in DAV            4
 -4.479854713682523E-005
 WARNING: Sub-Space-Matrix is not hermitian in DAV            5
  4.424297964618506E-005
 WARNING: Sub-Space-Matrix is not hermitian in DAV            4
 -4.479854713682523E-005
 WARNING: Sub-Space-Matrix is not hermitian in DAV            5
  4.424297964618506E-005
 WARNING: Sub-Space-Matrix is not hermitian in DAV            4
 -4.479854713682523E-005
 WARNING: Sub-Space-Matrix is not hermitian in DAV            5
  4.424297964618506E-005
 WARNING: Sub-Space-Matrix is not hermitian in DAV            4
 -4.479854713682523E-005
 WARNING: Sub-Space-Matrix is not hermitian in DAV            5
  4.424297964618506E-005
 WARNING: Sub-Space-Matrix is not hermitian in DAV            4
 -4.479854713682523E-005
 WARNING: Sub-Space-Matrix is not hermitian in DAV            5
  4.424297964618506E-005
 WARNING: Sub-Space-Matrix is not hermitian in DAV            4
 -4.479854713682523E-005
 WARNING: Sub-Space-Matrix is not hermitian in DAV            5
  4.424297964618506E-005
 WARNING: Sub-Space-Matrix is not hermitian in DAV            4
  2.033935625099718E-005
 WARNING: Sub-Space-Matrix is not hermitian in DAV            5
 -2.090277491151394E-005
 WARNING: Sub-Space-Matrix is not hermitian in DAV            4
  2.033935625099718E-005
 WARNING: Sub-Space-Matrix is not hermitian in DAV            5
 -2.090277491151394E-005
 WARNING: Sub-Space-Matrix is not hermitian in DAV            4
  2.033935625099718E-005
 WARNING: Sub-Space-Matrix is not hermitian in DAV            5
 -2.090277491151394E-005
 WARNING: Sub-Space-Matrix is not hermitian in DAV            4
  2.033935625099718E-005
 WARNING: Sub-Space-Matrix is not hermitian in DAV            5
 -2.090277491151394E-005
 WARNING: Sub-Space-Matrix is not hermitian in DAV            4
  2.033935625099718E-005
 WARNING: Sub-Space-Matrix is not hermitian in DAV            5
 -2.090277491151394E-005
 WARNING: Sub-Space-Matrix is not hermitian in DAV            4
  2.033935625099718E-005
 WARNING: Sub-Space-Matrix is not hermitian in DAV            5
 -2.090277491151394E-005
 WARNING: Sub-Space-Matrix is not hermitian in DAV            4
  2.033935625099718E-005
 WARNING: Sub-Space-Matrix is not hermitian in DAV            5
 -2.090277491151394E-005
 WARNING: Sub-Space-Matrix is not hermitian in DAV            4
  2.033935625099718E-005
 WARNING: Sub-Space-Matrix is not hermitian in DAV            5
 -2.090277491151394E-005
 WARNING: Sub-Space-Matrix is not hermitian in DAV            4
  2.033935625099718E-005
 WARNING: Sub-Space-Matrix is not hermitian in DAV            5
 -2.090277491151394E-005
 WARNING: Sub-Space-Matrix is not hermitian in DAV            4
  2.033935625099718E-005
 WARNING: Sub-Space-Matrix is not hermitian in DAV            5
 -2.090277491151394E-005
 WARNING: Sub-Space-Matrix is not hermitian in DAV            4
  2.033935625099718E-005
 WARNING: Sub-Space-Matrix is not hermitian in DAV            5
 -2.090277491151394E-005
 WARNING: Sub-Space-Matrix is not hermitian in DAV            4
  2.033935625099718E-005
 WARNING: Sub-Space-Matrix is not hermitian in DAV            5
 -2.090277491151394E-005
 WARNING: Sub-Space-Matrix is not hermitian in DAV            4
  2.033935625099718E-005
 WARNING: Sub-Space-Matrix is not hermitian in DAV            5
 -2.090277491151394E-005
 WARNING: Sub-Space-Matrix is not hermitian in DAV            4
  2.033935625099718E-005
 WARNING: Sub-Space-Matrix is not hermitian in DAV            5
 -2.090277491151394E-005
 WARNING: Sub-Space-Matrix is not hermitian in DAV            4
  2.033935625099718E-005
 WARNING: Sub-Space-Matrix is not hermitian in DAV            5
 -2.090277491151394E-005
 WARNING: Sub-Space-Matrix is not hermitian in DAV            4
  2.033935625099718E-005
 WARNING: Sub-Space-Matrix is not hermitian in DAV            5
 -2.090277491151394E-005
 WARNING: Sub-Space-Matrix is not hermitian in DAV            4
  1.845232347360975E-005
 WARNING: Sub-Space-Matrix is not hermitian in DAV            5
 -1.783264341087289E-005
 WARNING: Sub-Space-Matrix is not hermitian in DAV            4
  1.845232347360975E-005
 WARNING: Sub-Space-Matrix is not hermitian in DAV            5
 -1.783264341087289E-005
 WARNING: Sub-Space-Matrix is not hermitian in DAV            4
  1.845232347360975E-005
 WARNING: Sub-Space-Matrix is not hermitian in DAV            5
 -1.783264341087289E-005
 WARNING: Sub-Space-Matrix is not hermitian in DAV            4
  1.845232347360975E-005
 WARNING: Sub-Space-Matrix is not hermitian in DAV            5
 -1.783264341087289E-005
 WARNING: Sub-Space-Matrix is not hermitian in DAV            4
  1.845232347360975E-005
 WARNING: Sub-Space-Matrix is not hermitian in DAV            5
 -1.783264341087289E-005
 WARNING: Sub-Space-Matrix is not hermitian in DAV            4
  1.845232347360975E-005
 WARNING: Sub-Space-Matrix is not hermitian in DAV            5
 -1.783264341087289E-005
 WARNING: Sub-Space-Matrix is not hermitian in DAV            4
  1.845232347360975E-005
 WARNING: Sub-Space-Matrix is not hermitian in DAV            5
 -1.783264341087289E-005
 WARNING: Sub-Space-Matrix is not hermitian in DAV            4
  1.845232347360975E-005
 WARNING: Sub-Space-Matrix is not hermitian in DAV            5
 -1.783264341087289E-005
 WARNING: Sub-Space-Matrix is not hermitian in DAV            4
  1.845232347360975E-005
 WARNING: Sub-Space-Matrix is not hermitian in DAV            5
 -1.783264341087289E-005
 WARNING: Sub-Space-Matrix is not hermitian in DAV            4
  1.845232347360975E-005
 WARNING: Sub-Space-Matrix is not hermitian in DAV            5
 -1.783264341087289E-005
 WARNING: Sub-Space-Matrix is not hermitian in DAV            4
  1.845232347360975E-005
 WARNING: Sub-Space-Matrix is not hermitian in DAV            5
 -1.783264341087289E-005
 WARNING: Sub-Space-Matrix is not hermitian in DAV            4
  1.845232347360975E-005
 WARNING: Sub-Space-Matrix is not hermitian in DAV            5
 -1.783264341087289E-005
 WARNING: Sub-Space-Matrix is not hermitian in DAV            4
  1.845232347360975E-005
 WARNING: Sub-Space-Matrix is not hermitian in DAV            5
 -1.783264341087289E-005
 WARNING: Sub-Space-Matrix is not hermitian in DAV            4
  1.845232347360975E-005
 WARNING: Sub-Space-Matrix is not hermitian in DAV            5
 -1.783264341087289E-005
 WARNING: Sub-Space-Matrix is not hermitian in DAV            4
  1.845232347360975E-005
 WARNING: Sub-Space-Matrix is not hermitian in DAV            5
 -1.783264341087289E-005
 WARNING: Sub-Space-Matrix is not hermitian in DAV            4
  1.845232347360975E-005
 WARNING: Sub-Space-Matrix is not hermitian in DAV            5
 -1.783264341087289E-005
 WARNING: Sub-Space-Matrix is not hermitian in DAV            5
 -1.521399067079055E-005
 WARNING: Sub-Space-Matrix is not hermitian in DAV            5
 -1.521399067079055E-005
 WARNING: Sub-Space-Matrix is not hermitian in DAV            5
 -1.521399067079055E-005
 WARNING: Sub-Space-Matrix is not hermitian in DAV            5
 -1.521399067079055E-005
 WARNING: Sub-Space-Matrix is not hermitian in DAV            5
 -1.521399067079055E-005
 WARNING: Sub-Space-Matrix is not hermitian in DAV            5
 -1.521399067079055E-005
 WARNING: Sub-Space-Matrix is not hermitian in DAV            5
 -1.521399067079055E-005
 WARNING: Sub-Space-Matrix is not hermitian in DAV            5
 -1.521399067079055E-005
 WARNING: Sub-Space-Matrix is not hermitian in DAV            5
 -1.521399067079055E-005
 WARNING: Sub-Space-Matrix is not hermitian in DAV            5
 -1.521399067079055E-005
 WARNING: Sub-Space-Matrix is not hermitian in DAV            5
 -1.521399067079055E-005
 WARNING: Sub-Space-Matrix is not hermitian in DAV            5
 -1.521399067079055E-005
 WARNING: Sub-Space-Matrix is not hermitian in DAV            5
 -1.521399067079055E-005
 WARNING: Sub-Space-Matrix is not hermitian in DAV            5
 -1.521399067079055E-005
 WARNING: Sub-Space-Matrix is not hermitian in DAV            5
 -1.521399067079055E-005
 WARNING: Sub-Space-Matrix is not hermitian in DAV            5
 -1.521399067079055E-005
 WARNING: Sub-Space-Matrix is not hermitian in DAV            5
 -1.343882185291330E-005
 WARNING: Sub-Space-Matrix is not hermitian in DAV            5
 -1.343882185291330E-005
 WARNING: Sub-Space-Matrix is not hermitian in DAV            5
 -1.343882185291330E-005
 WARNING: Sub-Space-Matrix is not hermitian in DAV            5
 -1.343882185291330E-005
 WARNING: Sub-Space-Matrix is not hermitian in DAV            5
 -1.343882185291330E-005
 WARNING: Sub-Space-Matrix is not hermitian in DAV            5
 -1.343882185291330E-005
 WARNING: Sub-Space-Matrix is not hermitian in DAV            5
 -1.343882185291330E-005
 WARNING: Sub-Space-Matrix is not hermitian in DAV            5
 -1.343882185291330E-005
 WARNING: Sub-Space-Matrix is not hermitian in DAV            5
 -1.343882185291330E-005
 WARNING: Sub-Space-Matrix is not hermitian in DAV            5
 -1.343882185291330E-005
 WARNING: Sub-Space-Matrix is not hermitian in DAV            5
 -1.343882185291330E-005
 WARNING: Sub-Space-Matrix is not hermitian in DAV            5
 -1.343882185291330E-005
 WARNING: Sub-Space-Matrix is not hermitian in DAV            5
 -1.343882185291330E-005
 WARNING: Sub-Space-Matrix is not hermitian in DAV            5
 -1.343882185291330E-005
 WARNING: Sub-Space-Matrix is not hermitian in DAV            5
 -1.343882185291330E-005
 WARNING: Sub-Space-Matrix is not hermitian in DAV            5
 -1.343882185291330E-005
 WARNING: Sub-Space-Matrix is not hermitian in DAV            5
 -1.237262150036494E-005
 WARNING: Sub-Space-Matrix is not hermitian in DAV            5
 -1.237262150036494E-005
 WARNING: Sub-Space-Matrix is not hermitian in DAV            5
 -1.237262150036494E-005
 WARNING: Sub-Space-Matrix is not hermitian in DAV            5
 -1.237262150036494E-005
 WARNING: Sub-Space-Matrix is not hermitian in DAV            5
 -1.237262150036494E-005
 WARNING: Sub-Space-Matrix is not hermitian in DAV            5
 -1.237262150036494E-005
 WARNING: Sub-Space-Matrix is not hermitian in DAV            5
 -1.237262150036494E-005
 WARNING: Sub-Space-Matrix is not hermitian in DAV            5
 -1.237262150036494E-005
 WARNING: Sub-Space-Matrix is not hermitian in DAV            5
 -1.237262150036494E-005
 WARNING: Sub-Space-Matrix is not hermitian in DAV            5
 -1.237262150036494E-005
 WARNING: Sub-Space-Matrix is not hermitian in DAV            5
 -1.237262150036494E-005
 WARNING: Sub-Space-Matrix is not hermitian in DAV            5
 -1.237262150036494E-005
 WARNING: Sub-Space-Matrix is not hermitian in DAV            5
 -1.237262150036494E-005
 WARNING: Sub-Space-Matrix is not hermitian in DAV            5
 -1.237262150036494E-005
 WARNING: Sub-Space-Matrix is not hermitian in DAV            5
 -1.237262150036494E-005
 WARNING: Sub-Space-Matrix is not hermitian in DAV            5
 -1.237262150036494E-005
 WARNING: Sub-Space-Matrix is not hermitian in DAV            5
 -1.187597832566450E-005
 WARNING: Sub-Space-Matrix is not hermitian in DAV            5
 -1.187597832566450E-005
 WARNING: Sub-Space-Matrix is not hermitian in DAV            5
 -1.187597832566450E-005
 WARNING: Sub-Space-Matrix is not hermitian in DAV            5
 -1.187597832566450E-005
 WARNING: Sub-Space-Matrix is not hermitian in DAV            5
 -1.187597832566450E-005
 WARNING: Sub-Space-Matrix is not hermitian in DAV            5
 -1.187597832566450E-005
 WARNING: Sub-Space-Matrix is not hermitian in DAV            5
 -1.187597832566450E-005
 WARNING: Sub-Space-Matrix is not hermitian in DAV            5
 -1.187597832566450E-005
 WARNING: Sub-Space-Matrix is not hermitian in DAV            5
 -1.187597832566450E-005
 WARNING: Sub-Space-Matrix is not hermitian in DAV            5
 -1.187597832566450E-005
 WARNING: Sub-Space-Matrix is not hermitian in DAV            5
 -1.187597832566450E-005
 WARNING: Sub-Space-Matrix is not hermitian in DAV            5
 -1.187597832566450E-005
 WARNING: Sub-Space-Matrix is not hermitian in DAV            5
 -1.187597832566450E-005
 WARNING: Sub-Space-Matrix is not hermitian in DAV            5
 -1.187597832566450E-005
 WARNING: Sub-Space-Matrix is not hermitian in DAV            5
 -1.187597832566450E-005
 WARNING: Sub-Space-Matrix is not hermitian in DAV            5
 -1.187597832566450E-005
 WARNING: Sub-Space-Matrix is not hermitian in DAV            5
 -1.187873567461977E-005
 WARNING: Sub-Space-Matrix is not hermitian in DAV            5
 -1.187873567461977E-005
 WARNING: Sub-Space-Matrix is not hermitian in DAV            5
 -1.187873567461977E-005
 WARNING: Sub-Space-Matrix is not hermitian in DAV            5
 -1.187873567461977E-005
 WARNING: Sub-Space-Matrix is not hermitian in DAV            5
 -1.187873567461977E-005
 WARNING: Sub-Space-Matrix is not hermitian in DAV            5
 -1.187873567461977E-005
 WARNING: Sub-Space-Matrix is not hermitian in DAV            5
 -1.187873567461977E-005
 WARNING: Sub-Space-Matrix is not hermitian in DAV            5
 -1.187873567461977E-005
 WARNING: Sub-Space-Matrix is not hermitian in DAV            5
 -1.187873567461977E-005
 WARNING: Sub-Space-Matrix is not hermitian in DAV            5
 -1.187873567461977E-005
 WARNING: Sub-Space-Matrix is not hermitian in DAV            5
 -1.187873567461977E-005
 WARNING: Sub-Space-Matrix is not hermitian in DAV            5
 -1.187873567461977E-005
 WARNING: Sub-Space-Matrix is not hermitian in DAV            5
 -1.187873567461977E-005
 WARNING: Sub-Space-Matrix is not hermitian in DAV            5
 -1.187873567461977E-005
 WARNING: Sub-Space-Matrix is not hermitian in DAV            5
 -1.187873567461977E-005
 WARNING: Sub-Space-Matrix is not hermitian in DAV            5
 -1.187873567461977E-005
 WARNING: Sub-Space-Matrix is not hermitian in DAV            5
 -1.237521252718631E-005
 WARNING: Sub-Space-Matrix is not hermitian in DAV            5
 -1.237521252718631E-005
 WARNING: Sub-Space-Matrix is not hermitian in DAV            5
 -1.237521252718631E-005
 WARNING: Sub-Space-Matrix is not hermitian in DAV            5
 -1.237521252718631E-005
 WARNING: Sub-Space-Matrix is not hermitian in DAV            5
 -1.237521252718631E-005
 WARNING: Sub-Space-Matrix is not hermitian in DAV            5
 -1.237521252718631E-005
 WARNING: Sub-Space-Matrix is not hermitian in DAV            5
 -1.237521252718631E-005
 WARNING: Sub-Space-Matrix is not hermitian in DAV            5
 -1.237521252718631E-005
 WARNING: Sub-Space-Matrix is not hermitian in DAV            5
 -1.237521252718631E-005
 WARNING: Sub-Space-Matrix is not hermitian in DAV            5
 -1.237521252718631E-005
 WARNING: Sub-Space-Matrix is not hermitian in DAV            5
 -1.237521252718631E-005
 WARNING: Sub-Space-Matrix is not hermitian in DAV            5
 -1.237521252718631E-005
 WARNING: Sub-Space-Matrix is not hermitian in DAV            5
 -1.237521252718631E-005
 WARNING: Sub-Space-Matrix is not hermitian in DAV            5
 -1.237521252718631E-005
 WARNING: Sub-Space-Matrix is not hermitian in DAV            5
 -1.237521252718631E-005
 WARNING: Sub-Space-Matrix is not hermitian in DAV            5
 -1.237521252718631E-005
 WARNING: Sub-Space-Matrix is not hermitian in DAV            5
 -1.343951362028436E-005
 WARNING: Sub-Space-Matrix is not hermitian in DAV            5
 -1.343951362028436E-005
 WARNING: Sub-Space-Matrix is not hermitian in DAV            5
 -1.343951362028436E-005
 WARNING: Sub-Space-Matrix is not hermitian in DAV            5
 -1.343951362028436E-005
 WARNING: Sub-Space-Matrix is not hermitian in DAV            5
 -1.343951362028436E-005
 WARNING: Sub-Space-Matrix is not hermitian in DAV            5
 -1.343951362028436E-005
 WARNING: Sub-Space-Matrix is not hermitian in DAV            5
 -1.343951362028436E-005
 WARNING: Sub-Space-Matrix is not hermitian in DAV            5
 -1.343951362028436E-005
 WARNING: Sub-Space-Matrix is not hermitian in DAV            5
 -1.343951362028436E-005
 WARNING: Sub-Space-Matrix is not hermitian in DAV            5
 -1.343951362028436E-005
 WARNING: Sub-Space-Matrix is not hermitian in DAV            5
 -1.343951362028436E-005
 WARNING: Sub-Space-Matrix is not hermitian in DAV            5
 -1.343951362028436E-005
 WARNING: Sub-Space-Matrix is not hermitian in DAV            5
 -1.343951362028436E-005
 WARNING: Sub-Space-Matrix is not hermitian in DAV            5
 -1.343951362028436E-005
 WARNING: Sub-Space-Matrix is not hermitian in DAV            5
 -1.343951362028436E-005
 WARNING: Sub-Space-Matrix is not hermitian in DAV            5
 -1.343951362028436E-005
 WARNING: Sub-Space-Matrix is not hermitian in DAV            5
 -1.521433812191929E-005
 WARNING: Sub-Space-Matrix is not hermitian in DAV            5
 -1.521433812191929E-005
 WARNING: Sub-Space-Matrix is not hermitian in DAV            5
 -1.521433812191929E-005
 WARNING: Sub-Space-Matrix is not hermitian in DAV            5
 -1.521433812191929E-005
 WARNING: Sub-Space-Matrix is not hermitian in DAV            5
 -1.521433812191929E-005
 WARNING: Sub-Space-Matrix is not hermitian in DAV            5
 -1.521433812191929E-005
 WARNING: Sub-Space-Matrix is not hermitian in DAV            5
 -1.521433812191929E-005
 WARNING: Sub-Space-Matrix is not hermitian in DAV            5
 -1.521433812191929E-005
 WARNING: Sub-Space-Matrix is not hermitian in DAV            5
 -1.521433812191929E-005
 WARNING: Sub-Space-Matrix is not hermitian in DAV            5
 -1.521433812191929E-005
 WARNING: Sub-Space-Matrix is not hermitian in DAV            5
 -1.521433812191929E-005
 WARNING: Sub-Space-Matrix is not hermitian in DAV            5
 -1.521433812191929E-005
 WARNING: Sub-Space-Matrix is not hermitian in DAV            5
 -1.521433812191929E-005
 WARNING: Sub-Space-Matrix is not hermitian in DAV            5
 -1.521433812191929E-005
 WARNING: Sub-Space-Matrix is not hermitian in DAV            5
 -1.521433812191929E-005
 WARNING: Sub-Space-Matrix is not hermitian in DAV            5
 -1.521433812191929E-005
 WARNING: Sub-Space-Matrix is not hermitian in DAV            4
  1.513589230447807E-005
 WARNING: Sub-Space-Matrix is not hermitian in DAV            5
 -1.783433280460997E-005
 WARNING: Sub-Space-Matrix is not hermitian in DAV            4
  1.513589230447807E-005
 WARNING: Sub-Space-Matrix is not hermitian in DAV            5
 -1.783433280460997E-005
 WARNING: Sub-Space-Matrix is not hermitian in DAV            4
  1.513589230447807E-005
 WARNING: Sub-Space-Matrix is not hermitian in DAV            5
 -1.783433280460997E-005
 WARNING: Sub-Space-Matrix is not hermitian in DAV            4
  1.513589230447807E-005
 WARNING: Sub-Space-Matrix is not hermitian in DAV            5
 -1.783433280460997E-005
 WARNING: Sub-Space-Matrix is not hermitian in DAV            4
  1.513589230447807E-005
 WARNING: Sub-Space-Matrix is not hermitian in DAV            5
 -1.783433280460997E-005
 WARNING: Sub-Space-Matrix is not hermitian in DAV            4
  1.513589230447807E-005
 WARNING: Sub-Space-Matrix is not hermitian in DAV            5
 -1.783433280460997E-005
 WARNING: Sub-Space-Matrix is not hermitian in DAV            4
  1.513589230447807E-005
 WARNING: Sub-Space-Matrix is not hermitian in DAV            5
 -1.783433280460997E-005
 WARNING: Sub-Space-Matrix is not hermitian in DAV            4
  1.513589230447807E-005
 WARNING: Sub-Space-Matrix is not hermitian in DAV            5
 -1.783433280460997E-005
 WARNING: Sub-Space-Matrix is not hermitian in DAV            4
  1.513589230447807E-005
 WARNING: Sub-Space-Matrix is not hermitian in DAV            5
 -1.783433280460997E-005
 WARNING: Sub-Space-Matrix is not hermitian in DAV            4
  1.513589230447807E-005
 WARNING: Sub-Space-Matrix is not hermitian in DAV            5
 -1.783433280460997E-005
 WARNING: Sub-Space-Matrix is not hermitian in DAV            4
  1.513589230447807E-005
 WARNING: Sub-Space-Matrix is not hermitian in DAV            5
 -1.783433280460997E-005
 WARNING: Sub-Space-Matrix is not hermitian in DAV            4
  1.513589230447807E-005
[...]
 -2.047794116440932E-005
 WARNING: Sub-Space-Matrix is not hermitian in DAV            5
  1.332796123555941E-005
 WARNING: Sub-Space-Matrix is not hermitian in DAV            4
 -2.047794116440932E-005
 WARNING: Sub-Space-Matrix is not hermitian in DAV            5
  1.332796123555941E-005
 WARNING: Sub-Space-Matrix is not hermitian in DAV            4
 -2.047794116440932E-005
 WARNING: Sub-Space-Matrix is not hermitian in DAV            5
  1.332796123555941E-005
 WARNING: Sub-Space-Matrix is not hermitian in DAV            4
 -2.047794116440932E-005
 WARNING: Sub-Space-Matrix is not hermitian in DAV            5
  1.332796123555941E-005
 WARNING: Sub-Space-Matrix is not hermitian in DAV            4
 -2.047794116440932E-005
 WARNING: Sub-Space-Matrix is not hermitian in DAV            5
  1.332796123555941E-005
 WARNING: Sub-Space-Matrix is not hermitian in DAV            4
 -2.047794116440932E-005
 WARNING: Sub-Space-Matrix is not hermitian in DAV            5
  1.332796123555941E-005
 WARNING: Sub-Space-Matrix is not hermitian in DAV            4
 -2.047794116440932E-005
 WARNING: Sub-Space-Matrix is not hermitian in DAV            5
  1.332796123555941E-005
 WARNING: Sub-Space-Matrix is not hermitian in DAV            4
 -2.047794116440932E-005
 WARNING: Sub-Space-Matrix is not hermitian in DAV            5
  1.332796123555941E-005
 WARNING: Sub-Space-Matrix is not hermitian in DAV            4
 -2.047794116440932E-005
 WARNING: Sub-Space-Matrix is not hermitian in DAV            5
  1.332796123555941E-005
 WARNING: Sub-Space-Matrix is not hermitian in DAV            4
 -2.047794116440932E-005
 WARNING: Sub-Space-Matrix is not hermitian in DAV            5
  1.332796123555941E-005
 WARNING: Sub-Space-Matrix is not hermitian in DAV            4
 -2.047794116440932E-005
 WARNING: Sub-Space-Matrix is not hermitian in DAV            5
  1.332796123555941E-005
 WARNING: Sub-Space-Matrix is not hermitian in DAV            4
 -2.047794116440932E-005
 WARNING: Sub-Space-Matrix is not hermitian in DAV            5
  1.332796123555941E-005
 WARNING: Sub-Space-Matrix is not hermitian in DAV            4
 -2.047794116440932E-005
 WARNING: Sub-Space-Matrix is not hermitian in DAV            5
  1.332796123555941E-005
 WARNING: Sub-Space-Matrix is not hermitian in DAV            4
 -2.047794116440932E-005
 WARNING: Sub-Space-Matrix is not hermitian in DAV            5
  1.332796123555941E-005
 WARNING: Sub-Space-Matrix is not hermitian in DAV            3
  3.895128021506560E-005
 WARNING: Sub-Space-Matrix is not hermitian in DAV            5
 -5.738612013420557E-005
 WARNING: Sub-Space-Matrix is not hermitian in DAV            3
  3.895128021506560E-005
 WARNING: Sub-Space-Matrix is not hermitian in DAV            5
 -5.738612013420557E-005
 WARNING: Sub-Space-Matrix is not hermitian in DAV            3
  3.895128021506560E-005
 WARNING: Sub-Space-Matrix is not hermitian in DAV            5
 -5.738612013420557E-005
 WARNING: Sub-Space-Matrix is not hermitian in DAV            3
  3.895128021506560E-005
 WARNING: Sub-Space-Matrix is not hermitian in DAV            5
 -5.738612013420557E-005
 WARNING: Sub-Space-Matrix is not hermitian in DAV            3
  3.895128021506560E-005
 WARNING: Sub-Space-Matrix is not hermitian in DAV            5
 -5.738612013420557E-005
 WARNING: Sub-Space-Matrix is not hermitian in DAV            3
  3.895128021506560E-005
 WARNING: Sub-Space-Matrix is not hermitian in DAV            5
 -5.738612013420557E-005
 WARNING: Sub-Space-Matrix is not hermitian in DAV            3
  3.895128021506560E-005
 WARNING: Sub-Space-Matrix is not hermitian in DAV            5
 -5.738612013420557E-005
 WARNING: Sub-Space-Matrix is not hermitian in DAV            3
  3.895128021506560E-005
 WARNING: Sub-Space-Matrix is not hermitian in DAV            5
 -5.738612013420557E-005
 WARNING: Sub-Space-Matrix is not hermitian in DAV            3
  3.895128021506560E-005
 WARNING: Sub-Space-Matrix is not hermitian in DAV            5
 -5.738612013420557E-005
 WARNING: Sub-Space-Matrix is not hermitian in DAV            3
  3.895128021506560E-005
 WARNING: Sub-Space-Matrix is not hermitian in DAV            5
 -5.738612013420557E-005
 WARNING: Sub-Space-Matrix is not hermitian in DAV            3
  3.895128021506560E-005
 WARNING: Sub-Space-Matrix is not hermitian in DAV            5
 -5.738612013420557E-005
 WARNING: Sub-Space-Matrix is not hermitian in DAV            3
  3.895128021506560E-005
 WARNING: Sub-Space-Matrix is not hermitian in DAV            5
 -5.738612013420557E-005
 WARNING: Sub-Space-Matrix is not hermitian in DAV            3
  3.895128021506560E-005
 WARNING: Sub-Space-Matrix is not hermitian in DAV            5
 -5.738612013420557E-005
 WARNING: Sub-Space-Matrix is not hermitian in DAV            3
  3.895128021506560E-005
 WARNING: Sub-Space-Matrix is not hermitian in DAV            5
 -5.738612013420557E-005
 WARNING: Sub-Space-Matrix is not hermitian in DAV            3
  3.895128021506560E-005
 WARNING: Sub-Space-Matrix is not hermitian in DAV            5
 -5.738612013420557E-005
 WARNING: Sub-Space-Matrix is not hermitian in DAV            3
  3.895128021506560E-005
 WARNING: Sub-Space-Matrix is not hermitian in DAV            5
 -5.738612013420557E-005
 WARNING: Sub-Space-Matrix is not hermitian in DAV            3
  2.938969625973753E-005
 WARNING: Sub-Space-Matrix is not hermitian in DAV            5
 -5.069897472626043E-005
 WARNING: Sub-Space-Matrix is not hermitian in DAV            3
  2.938969625973753E-005
 WARNING: Sub-Space-Matrix is not hermitian in DAV            5
 -5.069897472626043E-005
 WARNING: Sub-Space-Matrix is not hermitian in DAV            3
  2.938969625973753E-005
 WARNING: Sub-Space-Matrix is not hermitian in DAV            5
 -5.069897472626043E-005
 WARNING: Sub-Space-Matrix is not hermitian in DAV            3
  2.938969625973753E-005
 WARNING: Sub-Space-Matrix is not hermitian in DAV            5
 -5.069897472626043E-005
 WARNING: Sub-Space-Matrix is not hermitian in DAV            3
  2.938969625973753E-005
 WARNING: Sub-Space-Matrix is not hermitian in DAV            5
 -5.069897472626043E-005
 WARNING: Sub-Space-Matrix is not hermitian in DAV            3
  2.938969625973753E-005
 WARNING: Sub-Space-Matrix is not hermitian in DAV            5
 -5.069897472626043E-005
 WARNING: Sub-Space-Matrix is not hermitian in DAV            3
  2.938969625973753E-005
 WARNING: Sub-Space-Matrix is not hermitian in DAV            5
 -5.069897472626043E-005
 WARNING: Sub-Space-Matrix is not hermitian in DAV            3
  2.938969625973753E-005
 WARNING: Sub-Space-Matrix is not hermitian in DAV            5
 -5.069897472626043E-005
 WARNING: Sub-Space-Matrix is not hermitian in DAV            3
  2.938969625973753E-005
 WARNING: Sub-Space-Matrix is not hermitian in DAV            5
 -5.069897472626043E-005
 WARNING: Sub-Space-Matrix is not hermitian in DAV            3
  2.938969625973753E-005
 WARNING: Sub-Space-Matrix is not hermitian in DAV            5
 -5.069897472626043E-005
 WARNING: Sub-Space-Matrix is not hermitian in DAV            3
  2.938969625973753E-005
 WARNING: Sub-Space-Matrix is not hermitian in DAV            5
 -5.069897472626043E-005
 WARNING: Sub-Space-Matrix is not hermitian in DAV            3
  2.938969625973753E-005
 WARNING: Sub-Space-Matrix is not hermitian in DAV            5
 -5.069897472626043E-005
 WARNING: Sub-Space-Matrix is not hermitian in DAV            3
  2.938969625973753E-005
 WARNING: Sub-Space-Matrix is not hermitian in DAV            5
 -5.069897472626043E-005
 WARNING: Sub-Space-Matrix is not hermitian in DAV            3
  2.938969625973753E-005
 WARNING: Sub-Space-Matrix is not hermitian in DAV            5
 -5.069897472626043E-005
 WARNING: Sub-Space-Matrix is not hermitian in DAV            3
  2.938969625973753E-005
 WARNING: Sub-Space-Matrix is not hermitian in DAV            5
 -5.069897472626043E-005
 WARNING: Sub-Space-Matrix is not hermitian in DAV            3
  2.938969625973753E-005
 WARNING: Sub-Space-Matrix is not hermitian in DAV            5
 -5.069897472626043E-005
 WARNING: Sub-Space-Matrix is not hermitian in DAV            5
 -4.024892062698845E-005
 WARNING: Sub-Space-Matrix is not hermitian in DAV            5
 -4.024892062698845E-005
 WARNING: Sub-Space-Matrix is not hermitian in DAV            5
 -4.024892062698845E-005
 WARNING: Sub-Space-Matrix is not hermitian in DAV            5
 -4.024892062698845E-005
 WARNING: Sub-Space-Matrix is not hermitian in DAV            5
 -4.024892062698845E-005
 WARNING: Sub-Space-Matrix is not hermitian in DAV            5
 -4.024892062698845E-005
 WARNING: Sub-Space-Matrix is not hermitian in DAV            5
 -4.024892062698845E-005
 WARNING: Sub-Space-Matrix is not hermitian in DAV            5
 -4.024892062698845E-005
 WARNING: Sub-Space-Matrix is not hermitian in DAV            5
 -4.024892062698845E-005
 WARNING: Sub-Space-Matrix is not hermitian in DAV            5
 -4.024892062698845E-005
 WARNING: Sub-Space-Matrix is not hermitian in DAV            5
 -4.024892062698845E-005
 WARNING: Sub-Space-Matrix is not hermitian in DAV            5
 -4.024892062698845E-005
 WARNING: Sub-Space-Matrix is not hermitian in DAV            5
 -4.024892062698845E-005
 WARNING: Sub-Space-Matrix is not hermitian in DAV            5
 -4.024892062698845E-005
 WARNING: Sub-Space-Matrix is not hermitian in DAV            5
 -4.024892062698845E-005
 WARNING: Sub-Space-Matrix is not hermitian in DAV            5
 -4.024892062698845E-005
 WARNING: Sub-Space-Matrix is not hermitian in DAV            5
 -2.753574440578600E-005
 WARNING: Sub-Space-Matrix is not hermitian in DAV            5
 -2.753574440578600E-005
 WARNING: Sub-Space-Matrix is not hermitian in DAV            5
 -2.753574440578600E-005
 WARNING: Sub-Space-Matrix is not hermitian in DAV            5
 -2.753574440578600E-005
 WARNING: Sub-Space-Matrix is not hermitian in DAV            5
 -2.753574440578600E-005
 WARNING: Sub-Space-Matrix is not hermitian in DAV            5
 -2.753574440578600E-005
 WARNING: Sub-Space-Matrix is not hermitian in DAV            5
 -2.753574440578600E-005
 WARNING: Sub-Space-Matrix is not hermitian in DAV            5
 -2.753574440578600E-005
 WARNING: Sub-Space-Matrix is not hermitian in DAV            5
 -2.753574440578600E-005
 WARNING: Sub-Space-Matrix is not hermitian in DAV            5
 -2.753574440578600E-005
 WARNING: Sub-Space-Matrix is not hermitian in DAV            5
 -2.753574440578600E-005
 WARNING: Sub-Space-Matrix is not hermitian in DAV            5
 -2.753574440578600E-005
 WARNING: Sub-Space-Matrix is not hermitian in DAV            5
 -2.753574440578600E-005
 WARNING: Sub-Space-Matrix is not hermitian in DAV            5
 -2.753574440578600E-005
 WARNING: Sub-Space-Matrix is not hermitian in DAV            5
 -2.753574440578600E-005
 WARNING: Sub-Space-Matrix is not hermitian in DAV            5
 -2.753574440578600E-005
 WARNING: Sub-Space-Matrix is not hermitian in DAV            4
 -1.925854100716500E-005
 WARNING: Sub-Space-Matrix is not hermitian in DAV            5
  2.119923855606183E-005
 WARNING: Sub-Space-Matrix is not hermitian in DAV            4
 -1.925854100716500E-005
 WARNING: Sub-Space-Matrix is not hermitian in DAV            5
  2.119923855606183E-005
 WARNING: Sub-Space-Matrix is not hermitian in DAV            4
 -1.925854100716500E-005
 WARNING: Sub-Space-Matrix is not hermitian in DAV            5
  2.119923855606183E-005
 WARNING: Sub-Space-Matrix is not hermitian in DAV            4
 -1.925854100716500E-005
 WARNING: Sub-Space-Matrix is not hermitian in DAV            5
  2.119923855606183E-005
 WARNING: Sub-Space-Matrix is not hermitian in DAV            4
 -1.925854100716500E-005
 WARNING: Sub-Space-Matrix is not hermitian in DAV            5
  2.119923855606183E-005
 WARNING: Sub-Space-Matrix is not hermitian in DAV            4
 -1.925854100716500E-005
 WARNING: Sub-Space-Matrix is not hermitian in DAV            5
  2.119923855606183E-005
 WARNING: Sub-Space-Matrix is not hermitian in DAV            4
 -1.925854100716500E-005
 WARNING: Sub-Space-Matrix is not hermitian in DAV            5
  2.119923855606183E-005
 WARNING: Sub-Space-Matrix is not hermitian in DAV            4
 -1.925854100716500E-005
 WARNING: Sub-Space-Matrix is not hermitian in DAV            5
  2.119923855606183E-005
 WARNING: Sub-Space-Matrix is not hermitian in DAV            4
 -1.925854100716500E-005
 WARNING: Sub-Space-Matrix is not hermitian in DAV            5
  2.119923855606183E-005
 WARNING: Sub-Space-Matrix is not hermitian in DAV            4
 -1.925854100716500E-005
 WARNING: Sub-Space-Matrix is not hermitian in DAV            5
  2.119923855606183E-005
 WARNING: Sub-Space-Matrix is not hermitian in DAV            4
 -1.925854100716500E-005
 WARNING: Sub-Space-Matrix is not hermitian in DAV            5
  2.119923855606183E-005
 WARNING: Sub-Space-Matrix is not hermitian in DAV            4
 -1.925854100716500E-005
 WARNING: Sub-Space-Matrix is not hermitian in DAV            5
  2.119923855606183E-005
 WARNING: Sub-Space-Matrix is not hermitian in DAV            4
 -1.925854100716500E-005
 WARNING: Sub-Space-Matrix is not hermitian in DAV            5
  2.119923855606183E-005
 WARNING: Sub-Space-Matrix is not hermitian in DAV            4
 -1.925854100716500E-005
 WARNING: Sub-Space-Matrix is not hermitian in DAV            5
  2.119923855606183E-005
 WARNING: Sub-Space-Matrix is not hermitian in DAV            4
 -1.925854100716500E-005
 WARNING: Sub-Space-Matrix is not hermitian in DAV            5
  2.119923855606183E-005
 WARNING: Sub-Space-Matrix is not hermitian in DAV            4
 -1.925854100716500E-005
 WARNING: Sub-Space-Matrix is not hermitian in DAV            5
  2.119923855606183E-005
 WARNING: Sub-Space-Matrix is not hermitian in DAV            5
 -4.770084551424733E-005
 WARNING: Sub-Space-Matrix is not hermitian in DAV            5
 -4.770084551424733E-005
 WARNING: Sub-Space-Matrix is not hermitian in DAV            5
 -4.770084551424733E-005
 WARNING: Sub-Space-Matrix is not hermitian in DAV            5
 -4.770084551424733E-005
 WARNING: Sub-Space-Matrix is not hermitian in DAV            5
 -4.770084551424733E-005
 WARNING: Sub-Space-Matrix is not hermitian in DAV            5
 -4.770084551424733E-005
 WARNING: Sub-Space-Matrix is not hermitian in DAV            5
 -4.770084551424733E-005
 WARNING: Sub-Space-Matrix is not hermitian in DAV            5
 -4.770084551424733E-005
 WARNING: Sub-Space-Matrix is not hermitian in DAV            5
 -4.770084551424733E-005
 WARNING: Sub-Space-Matrix is not hermitian in DAV            5
 -4.770084551424733E-005
 WARNING: Sub-Space-Matrix is not hermitian in DAV            5
 -4.770084551424733E-005
 WARNING: Sub-Space-Matrix is not hermitian in DAV            5
 -4.770084551424733E-005
 WARNING: Sub-Space-Matrix is not hermitian in DAV            5
 -4.770084551424733E-005
 WARNING: Sub-Space-Matrix is not hermitian in DAV            5
 -4.770084551424733E-005
 WARNING: Sub-Space-Matrix is not hermitian in DAV            5
 -4.770084551424733E-005
 WARNING: Sub-Space-Matrix is not hermitian in DAV            5
 -4.770084551424733E-005
 WARNING: Sub-Space-Matrix is not hermitian in DAV            5
 -3.582066813546596E-005
 WARNING: Sub-Space-Matrix is not hermitian in DAV            5
 -3.582066813546596E-005
 WARNING: Sub-Space-Matrix is not hermitian in DAV            5
 -3.582066813546596E-005
 WARNING: Sub-Space-Matrix is not hermitian in DAV            5
 -3.582066813546596E-005
 WARNING: Sub-Space-Matrix is not hermitian in DAV            5
 -3.582066813546596E-005
 WARNING: Sub-Space-Matrix is not hermitian in DAV            5
 -3.582066813546596E-005
 WARNING: Sub-Space-Matrix is not hermitian in DAV            5
 -3.582066813546596E-005
 WARNING: Sub-Space-Matrix is not hermitian in DAV            5
 -3.582066813546596E-005
 WARNING: Sub-Space-Matrix is not hermitian in DAV            5
 -3.582066813546596E-005
 WARNING: Sub-Space-Matrix is not hermitian in DAV            5
 -3.582066813546596E-005
 WARNING: Sub-Space-Matrix is not hermitian in DAV            5
 -3.582066813546596E-005
 WARNING: Sub-Space-Matrix is not hermitian in DAV            5
 -3.582066813546596E-005
 WARNING: Sub-Space-Matrix is not hermitian in DAV            5
 -3.582066813546596E-005
 WARNING: Sub-Space-Matrix is not hermitian in DAV            5
 -3.582066813546596E-005
 WARNING: Sub-Space-Matrix is not hermitian in DAV            5
 -3.582066813546596E-005
 WARNING: Sub-Space-Matrix is not hermitian in DAV            5
 -3.582066813546596E-005
 WARNING: Sub-Space-Matrix is not hermitian in DAV            5
 -3.154890723074280E-005
 WARNING: Sub-Space-Matrix is not hermitian in DAV            5
 -3.154890723074280E-005
 WARNING: Sub-Space-Matrix is not hermitian in DAV            5
 -3.154890723074280E-005
 WARNING: Sub-Space-Matrix is not hermitian in DAV            5
 -3.154890723074280E-005
 WARNING: Sub-Space-Matrix is not hermitian in DAV            5
 -3.154890723074280E-005
 WARNING: Sub-Space-Matrix is not hermitian in DAV            5
 -3.154890723074280E-005
 WARNING: Sub-Space-Matrix is not hermitian in DAV            5
 -3.154890723074280E-005
 WARNING: Sub-Space-Matrix is not hermitian in DAV            5
 -3.154890723074280E-005
 WARNING: Sub-Space-Matrix is not hermitian in DAV            5
 -3.154890723074280E-005
 WARNING: Sub-Space-Matrix is not hermitian in DAV            5
 -3.154890723074280E-005
 WARNING: Sub-Space-Matrix is not hermitian in DAV            5
 -3.154890723074280E-005
 WARNING: Sub-Space-Matrix is not hermitian in DAV            5
 -3.154890723074280E-005
 WARNING: Sub-Space-Matrix is not hermitian in DAV            5
 -3.154890723074280E-005
 WARNING: Sub-Space-Matrix is not hermitian in DAV            5
 -3.154890723074280E-005
 WARNING: Sub-Space-Matrix is not hermitian in DAV            5
 -3.154890723074280E-005
 WARNING: Sub-Space-Matrix is not hermitian in DAV            5
 -3.154890723074280E-005
 WARNING: Sub-Space-Matrix is not hermitian in DAV            4
 -2.948937163172623E-005
 WARNING: Sub-Space-Matrix is not hermitian in DAV            4
 -2.948937163172623E-005
 WARNING: Sub-Space-Matrix is not hermitian in DAV            4
 -2.948937163172623E-005
 WARNING: Sub-Space-Matrix is not hermitian in DAV            4
 -2.948937163172623E-005
 WARNING: Sub-Space-Matrix is not hermitian in DAV            4
 -2.948937163172623E-005
 WARNING: Sub-Space-Matrix is not hermitian in DAV            4
 -2.948937163172623E-005
 WARNING: Sub-Space-Matrix is not hermitian in DAV            4
 -2.948937163172623E-005
 WARNING: Sub-Space-Matrix is not hermitian in DAV            4
 -2.948937163172623E-005
 WARNING: Sub-Space-Matrix is not hermitian in DAV            4
 -2.948937163172623E-005
 WARNING: Sub-Space-Matrix is not hermitian in DAV            4
 -2.948937163172623E-005
 WARNING: Sub-Space-Matrix is not hermitian in DAV            4
 -2.948937163172623E-005
 WARNING: Sub-Space-Matrix is not hermitian in DAV            4
 -2.948937163172623E-005
 WARNING: Sub-Space-Matrix is not hermitian in DAV            4
 -2.948937163172623E-005
 WARNING: Sub-Space-Matrix is not hermitian in DAV            4
 -2.948937163172623E-005
 WARNING: Sub-Space-Matrix is not hermitian in DAV            4
 -2.948937163172623E-005
 WARNING: Sub-Space-Matrix is not hermitian in DAV            4
 -2.948937163172623E-005
DAV:  12    -0.174985666100E+02    0.21949E-05   -0.24494E-05  1386   0.381E-02
   1 F= -.17498567E+02 E0= -.17498567E+02  d E =-.174986E+02
 curvature:   0.00 expect dE= 0.000E+00 dE for cont linesearch  0.000E+00
 trial: gam= 0.00000 g(F)=  0.448E-05 g(S)=  0.438E-04 ort = 0.000E+00 (trialstep = 0.100E+01)
 search vector abs. value=  0.483E-04
 reached required accuracy - stopping structural energy minimisation
 writing wavefunctions
