unknown system                          
           1
     3.888946   -0.000000    0.000019
    -1.944473    3.367926   -0.000019
     0.000095   -0.000055    5.931103
   Si   H 
   2   2
Direct configuration=     1
   0.33332737  0.66667205  0.47932071
   0.66666263  0.33333677  0.35815759
   0.33332195  0.66667489  0.73232534
   0.66666548  0.33333138  0.10514304
Direct configuration=     2
   0.33718446  0.66667205  0.47932070
   0.66666263  0.33333677  0.35815759
   0.33332195  0.66667489  0.73232534
   0.66666548  0.33333138  0.10514304
Direct configuration=     3
   0.32947029  0.66667205  0.47932073
   0.66666263  0.33333677  0.35815759
   0.33332195  0.66667489  0.73232534
   0.66666548  0.33333138  0.10514304
Direct configuration=     4
   0.33555426  0.67112583  0.47932072
   0.66666263  0.33333677  0.35815759
   0.33332195  0.66667489  0.73232534
   0.66666548  0.33333138  0.10514304
Direct configuration=     5
   0.33110048  0.66221827  0.47932071
   0.66666263  0.33333677  0.35815759
   0.33332195  0.66667489  0.73232534
   0.66666548  0.33333138  0.10514304
Direct configuration=     6
   0.33332733  0.66667209  0.48184975
   0.66666263  0.33333677  0.35815759
   0.33332195  0.66667489  0.73232534
   0.66666548  0.33333138  0.10514304
Direct configuration=     7
   0.33332741  0.66667201  0.47679167
   0.66666263  0.33333677  0.35815759
   0.33332195  0.66667489  0.73232534
   0.66666548  0.33333138  0.10514304
Direct configuration=     8
   0.33332737  0.66667205  0.47932071
   0.67051972  0.33333677  0.35815758
   0.33332195  0.66667489  0.73232534
   0.66666548  0.33333138  0.10514304
Direct configuration=     9
   0.33332737  0.66667205  0.47932071
   0.66280555  0.33333677  0.35815761
   0.33332195  0.66667489  0.73232534
   0.66666548  0.33333138  0.10514304
Direct configuration=    10
   0.33332737  0.66667205  0.47932071
   0.66888952  0.33779055  0.35815760
   0.33332195  0.66667489  0.73232534
   0.66666548  0.33333138  0.10514304
Direct configuration=    11
   0.33332737  0.66667205  0.47932071
   0.66443574  0.32888299  0.35815759
   0.33332195  0.66667489  0.73232534
   0.66666548  0.33333138  0.10514304
Direct configuration=    12
   0.33332737  0.66667205  0.47932071
   0.66666259  0.33333681  0.36068663
   0.33332195  0.66667489  0.73232534
   0.66666548  0.33333138  0.10514304
Direct configuration=    13
   0.33332737  0.66667205  0.47932071
   0.66666268  0.33333672  0.35562855
   0.33332195  0.66667489  0.73232534
   0.66666548  0.33333138  0.10514304
Direct configuration=    14
   0.33332737  0.66667205  0.47932071
   0.66666263  0.33333677  0.35815759
   0.33717903  0.66667489  0.73232532
   0.66666548  0.33333138  0.10514304
Direct configuration=    15
   0.33332737  0.66667205  0.47932071
   0.66666263  0.33333677  0.35815759
   0.32946486  0.66667489  0.73232535
   0.66666548  0.33333138  0.10514304
Direct configuration=    16
   0.33332737  0.66667205  0.47932071
   0.66666263  0.33333677  0.35815759
   0.33554884  0.67112867  0.73232534
   0.66666548  0.33333138  0.10514304
Direct configuration=    17
   0.33332737  0.66667205  0.47932071
   0.66666263  0.33333677  0.35815759
   0.33109506  0.66222111  0.73232533
   0.66666548  0.33333138  0.10514304
Direct configuration=    18
   0.33332737  0.66667205  0.47932071
   0.66666263  0.33333677  0.35815759
   0.33332191  0.66667493  0.73485438
   0.66666548  0.33333138  0.10514304
Direct configuration=    19
   0.33332737  0.66667205  0.47932071
   0.66666263  0.33333677  0.35815759
   0.33332199  0.66667485  0.72979629
   0.66666548  0.33333138  0.10514304
Direct configuration=    20
   0.33332737  0.66667205  0.47932071
   0.66666263  0.33333677  0.35815759
   0.33332195  0.66667489  0.73232534
   0.67052256  0.33333138  0.10514303
Direct configuration=    21
   0.33332737  0.66667205  0.47932071
   0.66666263  0.33333677  0.35815759
   0.33332195  0.66667489  0.73232534
   0.66280839  0.33333138  0.10514306
Direct configuration=    22
   0.33332737  0.66667205  0.47932071
   0.66666263  0.33333677  0.35815759
   0.33332195  0.66667489  0.73232534
   0.66889237  0.33778516  0.10514305
Direct configuration=    23
   0.33332737  0.66667205  0.47932071
   0.66666263  0.33333677  0.35815759
   0.33332195  0.66667489  0.73232534
   0.66443859  0.32887760  0.10514304
Direct configuration=    24
   0.33332737  0.66667205  0.47932071
   0.66666263  0.33333677  0.35815759
   0.33332195  0.66667489  0.73232534
   0.66666544  0.33333142  0.10767208
Direct configuration=    25
   0.33332737  0.66667205  0.47932071
   0.66666263  0.33333677  0.35815759
   0.33332195  0.66667489  0.73232534
   0.66666552  0.33333134  0.10261400
