 vasp.5.4.4.18Apr17-6-g9f103f2a35 (build Aug 06 2018 12:32:45) complex          
  
 executed on                Euler date 2021.08.30  16:33:55
 running on   16 total cores
 distrk:  each k-point on    2 cores,    8 groups
 distr:  one band on NCORES_PER_BAND=   1 cores,    2 groups


--------------------------------------------------------------------------------------------------------


 INCAR:
 POTCAR:    PAW_PBE Si 05Jan2001                  
 POTCAR:    PAW_PBE H 15Jun2001                   

 ----------------------------------------------------------------------------- 
|                                                                             |
|           W    W    AA    RRRRR   N    N  II  N    N   GGGG   !!!           |
|           W    W   A  A   R    R  NN   N  II  NN   N  G    G  !!!           |
|           W    W  A    A  R    R  N N  N  II  N N  N  G       !!!           |
|           W WW W  AAAAAA  RRRRR   N  N N  II  N  N N  G  GGG   !            |
|           WW  WW  A    A  R   R   N   NN  II  N   NN  G    G                |
|           W    W  A    A  R    R  N    N  II  N    N   GGGG   !!!           |
|                                                                             |
|      For optimal performance we recommend to set                            |
|        NCORE= 4 - approx SQRT( number of cores)                             |
|      NCORE specifies how many cores store one orbital (NPAR=cpu/NCORE).     |
|      This setting can  greatly improve the performance of VASP for DFT.     |
|      The default,   NCORE=1            might be grossly inefficient         |
|      on modern multi-core architectures or massively parallel machines.     |
|      Do your own testing !!!!                                               |
|      Unfortunately you need to use the default for GW and RPA calculations. |
|      (for HF NCORE is supported but not extensively tested yet)             |
|                                                                             |
 ----------------------------------------------------------------------------- 


 ----------------------------------------------------------------------------- 
|                                                                             |
|           W    W    AA    RRRRR   N    N  II  N    N   GGGG   !!!           |
|           W    W   A  A   R    R  NN   N  II  NN   N  G    G  !!!           |
|           W    W  A    A  R    R  N N  N  II  N N  N  G       !!!           |
|           W WW W  AAAAAA  RRRRR   N  N N  II  N  N N  G  GGG   !            |
|           WW  WW  A    A  R   R   N   NN  II  N   NN  G    G                |
|           W    W  A    A  R    R  N    N  II  N    N   GGGG   !!!           |
|                                                                             |
|      You have enabled k-point parallelism (KPAR>1).                         |
|      This developmental code was originally  written by Paul Kent at ORNL,  |
|      and carefully double checked in Vienna.                                |
|      GW as well as linear response parallelism added by Martijn Marsman     |
|      and Georg Kresse.                                                      |
|      Carefully verify results versus KPAR=1.                                |
|      Report problems to Paul Kent and Vienna.                               |
|                                                                             |
 ----------------------------------------------------------------------------- 

 POTCAR:    PAW_PBE Si 05Jan2001                  
   VRHFIN =Si: s2p2                                                             
   LEXCH  = PE                                                                  
   EATOM  =   103.0669 eV,    7.5752 Ry                                         
                                                                                
   TITEL  = PAW_PBE Si 05Jan2001                                                
   LULTRA =        F    use ultrasoft PP ?                                      
   IUNSCR =        1    unscreen: 0-lin 1-nonlin 2-no                           
   RPACOR =    1.500    partial core radius                                     
   POMASS =   28.085; ZVAL   =    4.000    mass and valenz                      
   RCORE  =    1.900    outmost cutoff radius                                   
   RWIGS  =    2.480; RWIGS  =    1.312    wigner-seitz radius (au A)           
   ENMAX  =  245.345; ENMIN  =  184.009 eV                                      
   ICORE  =        2    local potential                                         
   LCOR   =        T    correct aug charges                                     
   LPAW   =        T    paw PP                                                  
   EAUG   =  322.069                                                            
   DEXC   =    0.000                                                            
   RMAX   =    1.950    core radius for proj-oper                               
   RAUG   =    1.300    factor for augmentation sphere                          
   RDEP   =    1.993    radius for radial grids                                 
   RDEPT  =    1.837    core radius for aug-charge                              
                                                                                
   Atomic configuration                                                         
    6 entries                                                                   
     n  l   j            E        occ.                                          
     1  0  0.50     -1785.8828   2.0000                                         
     2  0  0.50      -139.4969   2.0000                                         
     2  1  1.50       -95.5546   6.0000                                         
     3  0  0.50       -10.8127   2.0000                                         
     3  1  0.50        -4.0811   2.0000                                         
     3  2  1.50        -4.0817   0.0000                                         
   Description                                                                  
     l       E           TYP  RCUT    TYP  RCUT                                 
     0    -10.8127223     23  1.900                                             
     0     -7.6451159     23  1.900                                             
     1     -4.0811372     23  1.900                                             
     1      2.4879257     23  1.900                                             
     2     -4.0817478      7  1.900                                             
  local pseudopotential read in
  partial core-charges read in
  partial kinetic energy density read in
  atomic valenz-charges read in
  non local Contribution for L=           0  read in
    real space projection operators read in
  non local Contribution for L=           0  read in
    real space projection operators read in
  non local Contribution for L=           1  read in
    real space projection operators read in
  non local Contribution for L=           1  read in
    real space projection operators read in
    PAW grid and wavefunctions read in
 
   number of l-projection  operators is LMAX  =           4
   number of lm-projection operators is LMMAX =           8
 
 POTCAR:    PAW_PBE H 15Jun2001                   
   VRHFIN =H: ultrasoft test                                                    
   LEXCH  = PE                                                                  
   EATOM  =    12.4884 eV,    0.9179 Ry                                         
                                                                                
   TITEL  = PAW_PBE H 15Jun2001                                                 
   LULTRA =        F    use ultrasoft PP ?                                      
   IUNSCR =        0    unscreen: 0-lin 1-nonlin 2-no                           
   RPACOR =    0.000    partial core radius                                     
   POMASS =    1.000; ZVAL   =    1.000    mass and valenz                      
   RCORE  =    1.100    outmost cutoff radius                                   
   RWIGS  =    0.700; RWIGS  =    0.370    wigner-seitz radius (au A)           
   ENMAX  =  250.000; ENMIN  =  200.000 eV                                      
   RCLOC  =    0.701    cutoff for local pot                                    
   LCOR   =        T    correct aug charges                                     
   LPAW   =        T    paw PP                                                  
   EAUG   =  400.000                                                            
   RMAX   =    1.123    core radius for proj-oper                               
   RAUG   =    1.200    factor for augmentation sphere                          
   RDEP   =    1.112    radius for radial grids                                 
   RDEPT  =    0.926    core radius for aug-charge                              
                                                                                
   Atomic configuration                                                         
    2 entries                                                                   
     n  l   j            E        occ.                                          
     1  0  0.50        -6.4927   1.0000                                         
     2  1  0.50        -3.4015   0.0000                                         
   Description                                                                  
     l       E           TYP  RCUT    TYP  RCUT                                 
     0     -6.4927494     23  1.100                                             
     0      6.8029130     23  1.100                                             
     1     -4.0817478     23  1.100                                             
  local pseudopotential read in
  atomic valenz-charges read in
  non local Contribution for L=           0  read in
    real space projection operators read in
  non local Contribution for L=           0  read in
    real space projection operators read in
  non local Contribution for L=           1  read in
    real space projection operators read in
    PAW grid and wavefunctions read in
 
   number of l-projection  operators is LMAX  =           3
   number of lm-projection operators is LMMAX =           5
 
  PAW_PBE Si 05Jan2001                  :
 energy of atom  1       EATOM= -103.0669
 kinetic energy error for atom=    0.0004 (will be added to EATOM!!)
  PAW_PBE H 15Jun2001                   :
 energy of atom  2       EATOM=  -12.4884
 kinetic energy error for atom=    0.0008 (will be added to EATOM!!)
 
 
 POSCAR: Si  H                                   
  positions in direct lattice
  velocities in cartesian coordinates
 exchange correlation table for  LEXCH =        8
   RHO(1)=    0.500       N(1)  =     2000
   RHO(2)=  100.500       N(2)  =     4000
 


--------------------------------------------------------------------------------------------------------


 ion  position               nearest neighbor table
   1  0.333  0.667  0.150-   3 1.50   2 2.36   2 2.36   2 2.36
   2  0.667  0.333  0.112-   4 1.50   1 2.36   1 2.36   1 2.36
   3  0.333  0.667  0.229-   1 1.50
   4  0.667  0.333  0.033-   2 1.50
 

IMPORTANT INFORMATION: All symmetrisations will be switched off!
NOSYMM: (Re-)initialisation of all symmetry stuff for point group C_1.

 
 
 KPOINTS: Automatic                               

Automatic generation of k-mesh.
Space group operators:
 irot       det(A)        alpha          n_x          n_y          n_z        tau_x        tau_y        tau_z
    1     1.000000     0.000000     1.000000     0.000000     0.000000     0.000000     0.000000     0.000000
 
 Subroutine IBZKPT returns following result:
 ===========================================
 
 Found    254 irreducible k-points:
 
 Following reciprocal coordinates:
            Coordinates               Weight
  0.000000  0.000000  0.000000      1.000000
  0.076923 -0.000000 -0.000000      2.000000
  0.153846 -0.000000  0.000000      2.000000
  0.230769 -0.000000 -0.000000      2.000000
  0.307692 -0.000000 -0.000000      2.000000
  0.384615  0.000000 -0.000000      2.000000
  0.461538 -0.000000 -0.000000      2.000000
  0.000000  0.076923 -0.000000      2.000000
  0.076923  0.076923 -0.000000      2.000000
  0.153846  0.076923 -0.000000      2.000000
  0.230769  0.076923 -0.000000      2.000000
  0.307692  0.076923 -0.000000      2.000000
  0.384615  0.076923 -0.000000      2.000000
  0.461538  0.076923  0.000000      2.000000
 -0.461538  0.076923  0.000000      2.000000
 -0.384615  0.076923 -0.000000      2.000000
 -0.307692  0.076923  0.000000      2.000000
 -0.230769  0.076923  0.000000      2.000000
 -0.153846  0.076923  0.000000      2.000000
 -0.076923  0.076923 -0.000000      2.000000
  0.000000  0.153846 -0.000000      2.000000
  0.076923  0.153846 -0.000000      2.000000
  0.153846  0.153846 -0.000000      2.000000
  0.230769  0.153846 -0.000000      2.000000
  0.307692  0.153846 -0.000000      2.000000
  0.384615  0.153846 -0.000000      2.000000
  0.461538  0.153846 -0.000000      2.000000
 -0.461538  0.153846  0.000000      2.000000
 -0.384615  0.153846  0.000000      2.000000
 -0.307692  0.153846  0.000000      2.000000
 -0.230769  0.153846  0.000000      2.000000
 -0.153846  0.153846  0.000000      2.000000
 -0.076923  0.153846 -0.000000      2.000000
  0.000000  0.230769 -0.000000      2.000000
  0.076923  0.230769  0.000000      2.000000
  0.153846  0.230769 -0.000000      2.000000
  0.230769  0.230769 -0.000000      2.000000
  0.307692  0.230769 -0.000000      2.000000
  0.384615  0.230769 -0.000000      2.000000
  0.461538  0.230769 -0.000000      2.000000
 -0.461538  0.230769  0.000000      2.000000
 -0.384615  0.230769  0.000000      2.000000
 -0.307692  0.230769  0.000000      2.000000
 -0.230769  0.230769  0.000000      2.000000
 -0.153846  0.230769  0.000000      2.000000
 -0.076923  0.230769 -0.000000      2.000000
  0.000000  0.307692 -0.000000      2.000000
  0.076923  0.307692 -0.000000      2.000000
  0.153846  0.307692 -0.000000      2.000000
  0.230769  0.307692 -0.000000      2.000000
  0.307692  0.307692 -0.000000      2.000000
  0.384615  0.307692 -0.000000      2.000000
  0.461538  0.307692 -0.000000      2.000000
 -0.461538  0.307692  0.000000      2.000000
 -0.384615  0.307692  0.000000      2.000000
 -0.307692  0.307692  0.000000      2.000000
 -0.230769  0.307692 -0.000000      2.000000
 -0.153846  0.307692 -0.000000      2.000000
 -0.076923  0.307692 -0.000000      2.000000
  0.000000  0.384615  0.000000      2.000000
  0.076923  0.384615 -0.000000      2.000000
  0.153846  0.384615 -0.000000      2.000000
  0.230769  0.384615 -0.000000      2.000000
  0.307692  0.384615 -0.000000      2.000000
  0.384615  0.384615 -0.000000      2.000000
  0.461538  0.384615 -0.000000      2.000000
 -0.461538  0.384615 -0.000000      2.000000
 -0.384615  0.384615  0.000000      2.000000
 -0.307692  0.384615 -0.000000      2.000000
 -0.230769  0.384615 -0.000000      2.000000
 -0.153846  0.384615 -0.000000      2.000000
 -0.076923  0.384615  0.000000      2.000000
  0.000000  0.461538 -0.000000      2.000000
  0.076923  0.461538 -0.000000      2.000000
  0.153846  0.461538 -0.000000      2.000000
  0.230769  0.461538 -0.000000      2.000000
  0.307692  0.461538 -0.000000      2.000000
  0.384615  0.461538 -0.000000      2.000000
  0.461538  0.461538 -0.000000      2.000000
 -0.461538  0.461538  0.000000      2.000000
 -0.384615  0.461538 -0.000000      2.000000
 -0.307692  0.461538  0.000000      2.000000
 -0.230769  0.461538  0.000000      2.000000
 -0.153846  0.461538 -0.000000      2.000000
 -0.076923  0.461538  0.000000      2.000000
  0.000000 -0.000000  0.333333      2.000000
  0.076923  0.000000  0.333333      2.000000
  0.153846 -0.000000  0.333333      2.000000
  0.230769 -0.000000  0.333333      2.000000
  0.307692 -0.000000  0.333333      2.000000
  0.384615 -0.000000  0.333333      2.000000
  0.461538 -0.000000  0.333333      2.000000
 -0.461538  0.000000  0.333333      2.000000
 -0.384615 -0.000000  0.333333      2.000000
 -0.307692 -0.000000  0.333333      2.000000
 -0.230769  0.000000  0.333333      2.000000
 -0.153846 -0.000000  0.333333      2.000000
 -0.076923  0.000000  0.333333      2.000000
 -0.000000  0.076923  0.333333      2.000000
  0.076923  0.076923  0.333333      2.000000
  0.153846  0.076923  0.333333      2.000000
  0.230769  0.076923  0.333333      2.000000
  0.307692  0.076923  0.333333      2.000000
  0.384615  0.076923  0.333333      2.000000
  0.461538  0.076923  0.333333      2.000000
 -0.461538  0.076923  0.333333      2.000000
 -0.384615  0.076923  0.333333      2.000000
 -0.307692  0.076923  0.333333      2.000000
 -0.230769  0.076923  0.333333      2.000000
 -0.153846  0.076923  0.333333      2.000000
 -0.076923  0.076923  0.333333      2.000000
  0.000000  0.153846  0.333333      2.000000
  0.076923  0.153846  0.333333      2.000000
  0.153846  0.153846  0.333333      2.000000
  0.230769  0.153846  0.333333      2.000000
  0.307692  0.153846  0.333333      2.000000
  0.384615  0.153846  0.333333      2.000000
  0.461538  0.153846  0.333333      2.000000
 -0.461538  0.153846  0.333333      2.000000
 -0.384615  0.153846  0.333333      2.000000
 -0.307692  0.153846  0.333333      2.000000
 -0.230769  0.153846  0.333333      2.000000
 -0.153846  0.153846  0.333333      2.000000
 -0.076923  0.153846  0.333333      2.000000
  0.000000  0.230769  0.333333      2.000000
  0.076923  0.230769  0.333333      2.000000
  0.153846  0.230769  0.333333      2.000000
  0.230769  0.230769  0.333333      2.000000
  0.307692  0.230769  0.333333      2.000000
  0.384615  0.230769  0.333333      2.000000
  0.461538  0.230769  0.333333      2.000000
 -0.461538  0.230769  0.333333      2.000000
 -0.384615  0.230769  0.333333      2.000000
 -0.307692  0.230769  0.333333      2.000000
 -0.230769  0.230769  0.333333      2.000000
 -0.153846  0.230769  0.333333      2.000000
 -0.076923  0.230769  0.333333      2.000000
  0.000000  0.307692  0.333333      2.000000
  0.076923  0.307692  0.333333      2.000000
  0.153846  0.307692  0.333333      2.000000
  0.230769  0.307692  0.333333      2.000000
  0.307692  0.307692  0.333333      2.000000
  0.384615  0.307692  0.333333      2.000000
  0.461538  0.307692  0.333333      2.000000
 -0.461538  0.307692  0.333333      2.000000
 -0.384615  0.307692  0.333333      2.000000
 -0.307692  0.307692  0.333333      2.000000
 -0.230769  0.307692  0.333333      2.000000
 -0.153846  0.307692  0.333333      2.000000
 -0.076923  0.307692  0.333333      2.000000
 -0.000000  0.384615  0.333333      2.000000
  0.076923  0.384615  0.333333      2.000000
  0.153846  0.384615  0.333333      2.000000
  0.230769  0.384615  0.333333      2.000000
  0.307692  0.384615  0.333333      2.000000
  0.384615  0.384615  0.333333      2.000000
  0.461538  0.384615  0.333333      2.000000
 -0.461538  0.384615  0.333333      2.000000
 -0.384615  0.384615  0.333333      2.000000
 -0.307692  0.384615  0.333333      2.000000
 -0.230769  0.384615  0.333333      2.000000
 -0.153846  0.384615  0.333333      2.000000
 -0.076923  0.384615  0.333333      2.000000
  0.000000  0.461538  0.333333      2.000000
  0.076923  0.461538  0.333333      2.000000
  0.153846  0.461538  0.333333      2.000000
  0.230769  0.461538  0.333333      2.000000
  0.307692  0.461538  0.333333      2.000000
  0.384615  0.461538  0.333333      2.000000
  0.461538  0.461538  0.333333      2.000000
 -0.461538  0.461538  0.333333      2.000000
 -0.384615  0.461538  0.333333      2.000000
 -0.307692  0.461538  0.333333      2.000000
 -0.230769  0.461538  0.333333      2.000000
 -0.153846  0.461538  0.333333      2.000000
 -0.076923  0.461538  0.333333      2.000000
  0.000000 -0.461538  0.333333      2.000000
  0.076923 -0.461538  0.333333      2.000000
  0.153846 -0.461538  0.333333      2.000000
  0.230769 -0.461538  0.333333      2.000000
  0.307692 -0.461538  0.333333      2.000000
  0.384615 -0.461538  0.333333      2.000000
  0.461538 -0.461538  0.333333      2.000000
 -0.461538 -0.461538  0.333333      2.000000
 -0.384615 -0.461538  0.333333      2.000000
 -0.307692 -0.461538  0.333333      2.000000
 -0.230769 -0.461538  0.333333      2.000000
 -0.153846 -0.461538  0.333333      2.000000
 -0.076923 -0.461538  0.333333      2.000000
  0.000000 -0.384615  0.333333      2.000000
  0.076923 -0.384615  0.333333      2.000000
  0.153846 -0.384615  0.333333      2.000000
  0.230769 -0.384615  0.333333      2.000000
  0.307692 -0.384615  0.333333      2.000000
  0.384615 -0.384615  0.333333      2.000000
  0.461538 -0.384615  0.333333      2.000000
 -0.461538 -0.384615  0.333333      2.000000
 -0.384615 -0.384615  0.333333      2.000000
 -0.307692 -0.384615  0.333333      2.000000
 -0.230769 -0.384615  0.333333      2.000000
 -0.153846 -0.384615  0.333333      2.000000
 -0.076923 -0.384615  0.333333      2.000000
 -0.000000 -0.307692  0.333333      2.000000
  0.076923 -0.307692  0.333333      2.000000
  0.153846 -0.307692  0.333333      2.000000
  0.230769 -0.307692  0.333333      2.000000
  0.307692 -0.307692  0.333333      2.000000
  0.384615 -0.307692  0.333333      2.000000
  0.461538 -0.307692  0.333333      2.000000
 -0.461538 -0.307692  0.333333      2.000000
 -0.384615 -0.307692  0.333333      2.000000
 -0.307692 -0.307692  0.333333      2.000000
 -0.230769 -0.307692  0.333333      2.000000
 -0.153846 -0.307692  0.333333      2.000000
 -0.076923 -0.307692  0.333333      2.000000
  0.000000 -0.230769  0.333333      2.000000
  0.076923 -0.230769  0.333333      2.000000
  0.153846 -0.230769  0.333333      2.000000
  0.230769 -0.230769  0.333333      2.000000
  0.307692 -0.230769  0.333333      2.000000
  0.384615 -0.230769  0.333333      2.000000
  0.461538 -0.230769  0.333333      2.000000
 -0.461538 -0.230769  0.333333      2.000000
 -0.384615 -0.230769  0.333333      2.000000
 -0.307692 -0.230769  0.333333      2.000000
 -0.230769 -0.230769  0.333333      2.000000
 -0.153846 -0.230769  0.333333      2.000000
 -0.076923 -0.230769  0.333333      2.000000
  0.000000 -0.153846  0.333333      2.000000
  0.076923 -0.153846  0.333333      2.000000
  0.153846 -0.153846  0.333333      2.000000
  0.230769 -0.153846  0.333333      2.000000
  0.307692 -0.153846  0.333333      2.000000
  0.384615 -0.153846  0.333333      2.000000
  0.461538 -0.153846  0.333333      2.000000
 -0.461538 -0.153846  0.333333      2.000000
 -0.384615 -0.153846  0.333333      2.000000
 -0.307692 -0.153846  0.333333      2.000000
 -0.230769 -0.153846  0.333333      2.000000
 -0.153846 -0.153846  0.333333      2.000000
 -0.076923 -0.153846  0.333333      2.000000
  0.000000 -0.076923  0.333333      2.000000
  0.076923 -0.076923  0.333333      2.000000
  0.153846 -0.076923  0.333333      2.000000
  0.230769 -0.076923  0.333333      2.000000
  0.307692 -0.076923  0.333333      2.000000
  0.384615 -0.076923  0.333333      2.000000
  0.461538 -0.076923  0.333333      2.000000
 -0.461538 -0.076923  0.333333      2.000000
 -0.384615 -0.076923  0.333333      2.000000
 -0.307692 -0.076923  0.333333      2.000000
 -0.230769 -0.076923  0.333333      2.000000
 -0.153846 -0.076923  0.333333      2.000000
 -0.076923 -0.076923  0.333333      2.000000
 
 Following cartesian coordinates:
            Coordinates               Weight
  0.000000  0.000000  0.000000      1.000000
  0.019780  0.011420 -0.000000      2.000000
  0.039560  0.022840 -0.000000      2.000000
  0.059340  0.034260 -0.000000      2.000000
  0.079120  0.045680 -0.000000      2.000000
  0.098900  0.057100 -0.000000      2.000000
  0.118680  0.068520 -0.000000      2.000000
  0.000000  0.022840  0.000000      2.000000
  0.019780  0.034260 -0.000000      2.000000
  0.039560  0.045680 -0.000000      2.000000
  0.059340  0.057100 -0.000000      2.000000
  0.079120  0.068520 -0.000000      2.000000
  0.098900  0.079940 -0.000000      2.000000
  0.118680  0.091360 -0.000000      2.000000
 -0.118680 -0.045680  0.000000      2.000000
 -0.098900 -0.034260  0.000000      2.000000
 -0.079120 -0.022840  0.000000      2.000000
 -0.059340 -0.011420  0.000000      2.000000
 -0.039560 -0.000000  0.000000      2.000000
 -0.019780  0.011420  0.000000      2.000000
  0.000000  0.045680  0.000000      2.000000
  0.019780  0.057100  0.000000      2.000000
  0.039560  0.068520 -0.000000      2.000000
  0.059340  0.079940 -0.000000      2.000000
  0.079120  0.091360 -0.000000      2.000000
  0.098900  0.102780 -0.000000      2.000000
  0.118680  0.114199 -0.000000      2.000000
 -0.118680 -0.022840  0.000001      2.000000
 -0.098900 -0.011420  0.000000      2.000000
 -0.079120 -0.000000  0.000000      2.000000
 -0.059340  0.011420  0.000000      2.000000
 -0.039560  0.022840  0.000000      2.000000
 -0.019780  0.034260  0.000000      2.000000
  0.000000  0.068520  0.000000      2.000000
  0.019780  0.079940  0.000000      2.000000
  0.039560  0.091360  0.000000      2.000000
  0.059340  0.102780 -0.000000      2.000000
  0.079120  0.114199 -0.000000      2.000000
  0.098900  0.125619 -0.000000      2.000000
  0.118680  0.137039 -0.000000      2.000000
 -0.118680 -0.000000  0.000001      2.000000
 -0.098900  0.011420  0.000001      2.000000
 -0.079120  0.022840  0.000000      2.000000
 -0.059340  0.034260  0.000000      2.000000
 -0.039560  0.045680  0.000000      2.000000
 -0.019780  0.057100  0.000000      2.000000
  0.000000  0.091360  0.000000      2.000000
  0.019780  0.102780  0.000000      2.000000
  0.039560  0.114199  0.000000      2.000000
  0.059340  0.125619  0.000000      2.000000
  0.079120  0.137039 -0.000000      2.000000
  0.098900  0.148459 -0.000000      2.000000
  0.118680  0.159879 -0.000000      2.000000
 -0.118680  0.022840  0.000001      2.000000
 -0.098900  0.034260  0.000001      2.000000
 -0.079120  0.045680  0.000001      2.000000
 -0.059340  0.057100  0.000000      2.000000
 -0.039560  0.068520  0.000000      2.000000
 -0.019780  0.079940  0.000000      2.000000
  0.000000  0.114199  0.000000      2.000000
  0.019780  0.125619  0.000000      2.000000
  0.039560  0.137039  0.000000      2.000000
  0.059340  0.148459  0.000000      2.000000
  0.079120  0.159879  0.000000      2.000000
  0.098900  0.171299 -0.000000      2.000000
  0.118680  0.182719 -0.000000      2.000000
 -0.118680  0.045680  0.000001      2.000000
 -0.098900  0.057100  0.000001      2.000000
 -0.079120  0.068520  0.000001      2.000000
 -0.059340  0.079940  0.000001      2.000000
 -0.039560  0.091360  0.000000      2.000000
 -0.019780  0.102780  0.000000      2.000000
  0.000000  0.137039  0.000000      2.000000
  0.019780  0.148459  0.000000      2.000000
  0.039560  0.159879  0.000000      2.000000
  0.059340  0.171299  0.000000      2.000000
  0.079120  0.182719  0.000000      2.000000
  0.098900  0.194139  0.000000      2.000000
  0.118680  0.205559 -0.000000      2.000000
 -0.118680  0.068520  0.000001      2.000000
 -0.098900  0.079940  0.000001      2.000000
 -0.079120  0.091360  0.000001      2.000000
 -0.059340  0.102780  0.000001      2.000000
 -0.039560  0.114199  0.000001      2.000000
 -0.019780  0.125619  0.000000      2.000000
 -0.000000  0.000000  0.017608      2.000000
  0.019780  0.011420  0.017608      2.000000
  0.039560  0.022840  0.017608      2.000000
  0.059340  0.034260  0.017608      2.000000
  0.079120  0.045680  0.017607      2.000000
  0.098900  0.057100  0.017607      2.000000
  0.118679  0.068520  0.017607      2.000000
 -0.118680 -0.068520  0.017608      2.000000
 -0.098900 -0.057100  0.017608      2.000000
 -0.079120 -0.045680  0.017608      2.000000
 -0.059340 -0.034260  0.017608      2.000000
 -0.039560 -0.022840  0.017608      2.000000
 -0.019780 -0.011420  0.017608      2.000000
 -0.000000  0.022840  0.017608      2.000000
  0.019780  0.034260  0.017608      2.000000
  0.039560  0.045680  0.017608      2.000000
  0.059340  0.057100  0.017608      2.000000
  0.079120  0.068520  0.017608      2.000000
  0.098900  0.079940  0.017607      2.000000
  0.118679  0.091360  0.017607      2.000000
 -0.118680 -0.045680  0.017608      2.000000
 -0.098900 -0.034260  0.017608      2.000000
 -0.079120 -0.022840  0.017608      2.000000
 -0.059340 -0.011420  0.017608      2.000000
 -0.039560  0.000000  0.017608      2.000000
 -0.019780  0.011420  0.017608      2.000000
 -0.000000  0.045680  0.017608      2.000000
  0.019780  0.057100  0.017608      2.000000
  0.039560  0.068520  0.017608      2.000000
  0.059340  0.079940  0.017608      2.000000
  0.079120  0.091360  0.017608      2.000000
  0.098900  0.102780  0.017608      2.000000
  0.118679  0.114200  0.017607      2.000000
 -0.118680 -0.022840  0.017608      2.000000
 -0.098900 -0.011420  0.017608      2.000000
 -0.079120  0.000000  0.017608      2.000000
 -0.059340  0.011420  0.017608      2.000000
 -0.039560  0.022840  0.017608      2.000000
 -0.019780  0.034260  0.017608      2.000000
 -0.000000  0.068520  0.017608      2.000000
  0.019780  0.079940  0.017608      2.000000
  0.039560  0.091360  0.017608      2.000000
  0.059340  0.102780  0.017608      2.000000
  0.079120  0.114200  0.017608      2.000000
  0.098900  0.125619  0.017608      2.000000
  0.118680  0.137039  0.017608      2.000000
 -0.118680  0.000000  0.017608      2.000000
 -0.098900  0.011420  0.017608      2.000000
 -0.079120  0.022840  0.017608      2.000000
 -0.059340  0.034260  0.017608      2.000000
 -0.039560  0.045680  0.017608      2.000000
 -0.019780  0.057100  0.017608      2.000000
 -0.000000  0.091360  0.017608      2.000000
  0.019780  0.102780  0.017608      2.000000
  0.039560  0.114200  0.017608      2.000000
  0.059340  0.125619  0.017608      2.000000
  0.079120  0.137039  0.017608      2.000000
  0.098900  0.148459  0.017608      2.000000
  0.118680  0.159879  0.017608      2.000000
 -0.118680  0.022840  0.017608      2.000000
 -0.098900  0.034260  0.017608      2.000000
 -0.079120  0.045680  0.017608      2.000000
 -0.059340  0.057100  0.017608      2.000000
 -0.039560  0.068520  0.017608      2.000000
 -0.019780  0.079940  0.017608      2.000000
 -0.000000  0.114200  0.017608      2.000000
  0.019780  0.125619  0.017608      2.000000
  0.039560  0.137039  0.017608      2.000000
  0.059340  0.148459  0.017608      2.000000
  0.079120  0.159879  0.017608      2.000000
  0.098900  0.171299  0.017608      2.000000
  0.118680  0.182719  0.017608      2.000000
 -0.118680  0.045680  0.017608      2.000000
 -0.098900  0.057100  0.017608      2.000000
 -0.079120  0.068520  0.017608      2.000000
 -0.059340  0.079940  0.017608      2.000000
 -0.039560  0.091360  0.017608      2.000000
 -0.019780  0.102780  0.017608      2.000000
 -0.000000  0.137039  0.017608      2.000000
  0.019780  0.148459  0.017608      2.000000
  0.039560  0.159879  0.017608      2.000000
  0.059340  0.171299  0.017608      2.000000
  0.079120  0.182719  0.017608      2.000000
  0.098900  0.194139  0.017608      2.000000
  0.118680  0.205559  0.017608      2.000000
 -0.118680  0.068520  0.017609      2.000000
 -0.098900  0.079940  0.017608      2.000000
 -0.079120  0.091360  0.017608      2.000000
 -0.059340  0.102780  0.017608      2.000000
 -0.039560  0.114200  0.017608      2.000000
 -0.019780  0.125619  0.017608      2.000000
 -0.000000 -0.137039  0.017607      2.000000
  0.019780 -0.125619  0.017607      2.000000
  0.039560 -0.114199  0.017607      2.000000
  0.059340 -0.102779  0.017607      2.000000
  0.079120 -0.091360  0.017607      2.000000
  0.098900 -0.079940  0.017607      2.000000
  0.118679 -0.068520  0.017607      2.000000
 -0.118680 -0.205559  0.017608      2.000000
 -0.098900 -0.194139  0.017608      2.000000
 -0.079120 -0.182719  0.017608      2.000000
 -0.059340 -0.171299  0.017608      2.000000
 -0.039560 -0.159879  0.017607      2.000000
 -0.019780 -0.148459  0.017607      2.000000
 -0.000000 -0.114199  0.017607      2.000000
  0.019780 -0.102779  0.017607      2.000000
  0.039560 -0.091360  0.017607      2.000000
  0.059340 -0.079940  0.017607      2.000000
  0.079120 -0.068520  0.017607      2.000000
  0.098900 -0.057100  0.017607      2.000000
  0.118679 -0.045680  0.017607      2.000000
 -0.118680 -0.182719  0.017608      2.000000
 -0.098900 -0.171299  0.017608      2.000000
 -0.079120 -0.159879  0.017608      2.000000
 -0.059340 -0.148459  0.017608      2.000000
 -0.039560 -0.137039  0.017608      2.000000
 -0.019780 -0.125619  0.017607      2.000000
 -0.000000 -0.091360  0.017607      2.000000
  0.019780 -0.079940  0.017607      2.000000
  0.039560 -0.068520  0.017607      2.000000
  0.059340 -0.057100  0.017607      2.000000
  0.079120 -0.045680  0.017607      2.000000
  0.098900 -0.034260  0.017607      2.000000
  0.118679 -0.022840  0.017607      2.000000
 -0.118680 -0.159879  0.017608      2.000000
 -0.098900 -0.148459  0.017608      2.000000
 -0.079120 -0.137039  0.017608      2.000000
 -0.059340 -0.125619  0.017608      2.000000
 -0.039560 -0.114199  0.017608      2.000000
 -0.019780 -0.102779  0.017608      2.000000
 -0.000000 -0.068520  0.017608      2.000000
  0.019780 -0.057100  0.017607      2.000000
  0.039560 -0.045680  0.017607      2.000000
  0.059340 -0.034260  0.017607      2.000000
  0.079120 -0.022840  0.017607      2.000000
  0.098900 -0.011420  0.017607      2.000000
  0.118679  0.000000  0.017607      2.000000
 -0.118680 -0.137039  0.017608      2.000000
 -0.098900 -0.125619  0.017608      2.000000
 -0.079120 -0.114199  0.017608      2.000000
 -0.059340 -0.102779  0.017608      2.000000
 -0.039560 -0.091360  0.017608      2.000000
 -0.019780 -0.079940  0.017608      2.000000
 -0.000000 -0.045680  0.017608      2.000000
  0.019780 -0.034260  0.017608      2.000000
  0.039560 -0.022840  0.017607      2.000000
  0.059340 -0.011420  0.017607      2.000000
  0.079120  0.000000  0.017607      2.000000
  0.098900  0.011420  0.017607      2.000000
  0.118679  0.022840  0.017607      2.000000
 -0.118680 -0.114199  0.017608      2.000000
 -0.098900 -0.102779  0.017608      2.000000
 -0.079120 -0.091360  0.017608      2.000000
 -0.059340 -0.079940  0.017608      2.000000
 -0.039560 -0.068520  0.017608      2.000000
 -0.019780 -0.057100  0.017608      2.000000
 -0.000000 -0.022840  0.017608      2.000000
  0.019780 -0.011420  0.017608      2.000000
  0.039560  0.000000  0.017608      2.000000
  0.059340  0.011420  0.017607      2.000000
  0.079120  0.022840  0.017607      2.000000
  0.098900  0.034260  0.017607      2.000000
  0.118679  0.045680  0.017607      2.000000
 -0.118680 -0.091360  0.017608      2.000000
 -0.098900 -0.079940  0.017608      2.000000
 -0.079120 -0.068520  0.017608      2.000000
 -0.059340 -0.057100  0.017608      2.000000
 -0.039560 -0.045680  0.017608      2.000000
 -0.019780 -0.034260  0.017608      2.000000
 
 TETIRR: Found   1518 inequivalent tetrahedra from     3042
 
 Subroutine IBZKPT_HF returns following result:
 ==============================================
 
 Found    507 k-points in 1st BZ
 the following    507 k-points will be used (e.g. in the exchange kernel)
 Following reciprocal coordinates:   # in IRBZ
  0.000000  0.000000  0.000000    0.00197239   1 t-inv F
  0.076923 -0.000000 -0.000000    0.00197239   2 t-inv F
  0.153846 -0.000000  0.000000    0.00197239   3 t-inv F
  0.230769 -0.000000 -0.000000    0.00197239   4 t-inv F
  0.307692 -0.000000 -0.000000    0.00197239   5 t-inv F
  0.384615  0.000000 -0.000000    0.00197239   6 t-inv F
  0.461538 -0.000000 -0.000000    0.00197239   7 t-inv F
  0.000000  0.076923 -0.000000    0.00197239   8 t-inv F
  0.076923  0.076923 -0.000000    0.00197239   9 t-inv F
  0.153846  0.076923 -0.000000    0.00197239  10 t-inv F
  0.230769  0.076923 -0.000000    0.00197239  11 t-inv F
  0.307692  0.076923 -0.000000    0.00197239  12 t-inv F
  0.384615  0.076923 -0.000000    0.00197239  13 t-inv F
  0.461538  0.076923  0.000000    0.00197239  14 t-inv F
 -0.461538  0.076923  0.000000    0.00197239  15 t-inv F
 -0.384615  0.076923 -0.000000    0.00197239  16 t-inv F
 -0.307692  0.076923  0.000000    0.00197239  17 t-inv F
 -0.230769  0.076923  0.000000    0.00197239  18 t-inv F
 -0.153846  0.076923  0.000000    0.00197239  19 t-inv F
 -0.076923  0.076923 -0.000000    0.00197239  20 t-inv F
  0.000000  0.153846 -0.000000    0.00197239  21 t-inv F
  0.076923  0.153846 -0.000000    0.00197239  22 t-inv F
  0.153846  0.153846 -0.000000    0.00197239  23 t-inv F
  0.230769  0.153846 -0.000000    0.00197239  24 t-inv F
  0.307692  0.153846 -0.000000    0.00197239  25 t-inv F
  0.384615  0.153846 -0.000000    0.00197239  26 t-inv F
  0.461538  0.153846 -0.000000    0.00197239  27 t-inv F
 -0.461538  0.153846  0.000000    0.00197239  28 t-inv F
 -0.384615  0.153846  0.000000    0.00197239  29 t-inv F
 -0.307692  0.153846  0.000000    0.00197239  30 t-inv F
 -0.230769  0.153846  0.000000    0.00197239  31 t-inv F
 -0.153846  0.153846  0.000000    0.00197239  32 t-inv F
 -0.076923  0.153846 -0.000000    0.00197239  33 t-inv F
  0.000000  0.230769 -0.000000    0.00197239  34 t-inv F
  0.076923  0.230769  0.000000    0.00197239  35 t-inv F
  0.153846  0.230769 -0.000000    0.00197239  36 t-inv F
  0.230769  0.230769 -0.000000    0.00197239  37 t-inv F
  0.307692  0.230769 -0.000000    0.00197239  38 t-inv F
  0.384615  0.230769 -0.000000    0.00197239  39 t-inv F
  0.461538  0.230769 -0.000000    0.00197239  40 t-inv F
 -0.461538  0.230769  0.000000    0.00197239  41 t-inv F
 -0.384615  0.230769  0.000000    0.00197239  42 t-inv F
 -0.307692  0.230769  0.000000    0.00197239  43 t-inv F
 -0.230769  0.230769  0.000000    0.00197239  44 t-inv F
 -0.153846  0.230769  0.000000    0.00197239  45 t-inv F
 -0.076923  0.230769 -0.000000    0.00197239  46 t-inv F
  0.000000  0.307692 -0.000000    0.00197239  47 t-inv F
  0.076923  0.307692 -0.000000    0.00197239  48 t-inv F
  0.153846  0.307692 -0.000000    0.00197239  49 t-inv F
  0.230769  0.307692 -0.000000    0.00197239  50 t-inv F
  0.307692  0.307692 -0.000000    0.00197239  51 t-inv F
  0.384615  0.307692 -0.000000    0.00197239  52 t-inv F
  0.461538  0.307692 -0.000000    0.00197239  53 t-inv F
 -0.461538  0.307692  0.000000    0.00197239  54 t-inv F
 -0.384615  0.307692  0.000000    0.00197239  55 t-inv F
 -0.307692  0.307692  0.000000    0.00197239  56 t-inv F
 -0.230769  0.307692 -0.000000    0.00197239  57 t-inv F
 -0.153846  0.307692 -0.000000    0.00197239  58 t-inv F
 -0.076923  0.307692 -0.000000    0.00197239  59 t-inv F
  0.000000  0.384615  0.000000    0.00197239  60 t-inv F
  0.076923  0.384615 -0.000000    0.00197239  61 t-inv F
  0.153846  0.384615 -0.000000    0.00197239  62 t-inv F
  0.230769  0.384615 -0.000000    0.00197239  63 t-inv F
  0.307692  0.384615 -0.000000    0.00197239  64 t-inv F
  0.384615  0.384615 -0.000000    0.00197239  65 t-inv F
  0.461538  0.384615 -0.000000    0.00197239  66 t-inv F
 -0.461538  0.384615 -0.000000    0.00197239  67 t-inv F
 -0.384615  0.384615  0.000000    0.00197239  68 t-inv F
 -0.307692  0.384615 -0.000000    0.00197239  69 t-inv F
 -0.230769  0.384615 -0.000000    0.00197239  70 t-inv F
 -0.153846  0.384615 -0.000000    0.00197239  71 t-inv F
 -0.076923  0.384615  0.000000    0.00197239  72 t-inv F
  0.000000  0.461538 -0.000000    0.00197239  73 t-inv F
  0.076923  0.461538 -0.000000    0.00197239  74 t-inv F
  0.153846  0.461538 -0.000000    0.00197239  75 t-inv F
  0.230769  0.461538 -0.000000    0.00197239  76 t-inv F
  0.307692  0.461538 -0.000000    0.00197239  77 t-inv F
  0.384615  0.461538 -0.000000    0.00197239  78 t-inv F
  0.461538  0.461538 -0.000000    0.00197239  79 t-inv F
 -0.461538  0.461538  0.000000    0.00197239  80 t-inv F
 -0.384615  0.461538 -0.000000    0.00197239  81 t-inv F
 -0.307692  0.461538  0.000000    0.00197239  82 t-inv F
 -0.230769  0.461538  0.000000    0.00197239  83 t-inv F
 -0.153846  0.461538 -0.000000    0.00197239  84 t-inv F
 -0.076923  0.461538  0.000000    0.00197239  85 t-inv F
  0.000000 -0.000000  0.333333    0.00197239  86 t-inv F
  0.076923  0.000000  0.333333    0.00197239  87 t-inv F
  0.153846 -0.000000  0.333333    0.00197239  88 t-inv F
  0.230769 -0.000000  0.333333    0.00197239  89 t-inv F
  0.307692 -0.000000  0.333333    0.00197239  90 t-inv F
  0.384615 -0.000000  0.333333    0.00197239  91 t-inv F
  0.461538 -0.000000  0.333333    0.00197239  92 t-inv F
 -0.461538  0.000000  0.333333    0.00197239  93 t-inv F
 -0.384615 -0.000000  0.333333    0.00197239  94 t-inv F
 -0.307692 -0.000000  0.333333    0.00197239  95 t-inv F
 -0.230769  0.000000  0.333333    0.00197239  96 t-inv F
 -0.153846 -0.000000  0.333333    0.00197239  97 t-inv F
 -0.076923  0.000000  0.333333    0.00197239  98 t-inv F
 -0.000000  0.076923  0.333333    0.00197239  99 t-inv F
  0.076923  0.076923  0.333333    0.00197239 100 t-inv F
  0.153846  0.076923  0.333333    0.00197239 101 t-inv F
  0.230769  0.076923  0.333333    0.00197239 102 t-inv F
  0.307692  0.076923  0.333333    0.00197239 103 t-inv F
  0.384615  0.076923  0.333333    0.00197239 104 t-inv F
  0.461538  0.076923  0.333333    0.00197239 105 t-inv F
 -0.461538  0.076923  0.333333    0.00197239 106 t-inv F
 -0.384615  0.076923  0.333333    0.00197239 107 t-inv F
 -0.307692  0.076923  0.333333    0.00197239 108 t-inv F
 -0.230769  0.076923  0.333333    0.00197239 109 t-inv F
 -0.153846  0.076923  0.333333    0.00197239 110 t-inv F
 -0.076923  0.076923  0.333333    0.00197239 111 t-inv F
  0.000000  0.153846  0.333333    0.00197239 112 t-inv F
  0.076923  0.153846  0.333333    0.00197239 113 t-inv F
  0.153846  0.153846  0.333333    0.00197239 114 t-inv F
  0.230769  0.153846  0.333333    0.00197239 115 t-inv F
  0.307692  0.153846  0.333333    0.00197239 116 t-inv F
  0.384615  0.153846  0.333333    0.00197239 117 t-inv F
  0.461538  0.153846  0.333333    0.00197239 118 t-inv F
 -0.461538  0.153846  0.333333    0.00197239 119 t-inv F
 -0.384615  0.153846  0.333333    0.00197239 120 t-inv F
 -0.307692  0.153846  0.333333    0.00197239 121 t-inv F
 -0.230769  0.153846  0.333333    0.00197239 122 t-inv F
 -0.153846  0.153846  0.333333    0.00197239 123 t-inv F
 -0.076923  0.153846  0.333333    0.00197239 124 t-inv F
  0.000000  0.230769  0.333333    0.00197239 125 t-inv F
  0.076923  0.230769  0.333333    0.00197239 126 t-inv F
  0.153846  0.230769  0.333333    0.00197239 127 t-inv F
  0.230769  0.230769  0.333333    0.00197239 128 t-inv F
  0.307692  0.230769  0.333333    0.00197239 129 t-inv F
  0.384615  0.230769  0.333333    0.00197239 130 t-inv F
  0.461538  0.230769  0.333333    0.00197239 131 t-inv F
 -0.461538  0.230769  0.333333    0.00197239 132 t-inv F
 -0.384615  0.230769  0.333333    0.00197239 133 t-inv F
 -0.307692  0.230769  0.333333    0.00197239 134 t-inv F
 -0.230769  0.230769  0.333333    0.00197239 135 t-inv F
 -0.153846  0.230769  0.333333    0.00197239 136 t-inv F
 -0.076923  0.230769  0.333333    0.00197239 137 t-inv F
  0.000000  0.307692  0.333333    0.00197239 138 t-inv F
  0.076923  0.307692  0.333333    0.00197239 139 t-inv F
  0.153846  0.307692  0.333333    0.00197239 140 t-inv F
  0.230769  0.307692  0.333333    0.00197239 141 t-inv F
  0.307692  0.307692  0.333333    0.00197239 142 t-inv F
  0.384615  0.307692  0.333333    0.00197239 143 t-inv F
  0.461538  0.307692  0.333333    0.00197239 144 t-inv F
 -0.461538  0.307692  0.333333    0.00197239 145 t-inv F
 -0.384615  0.307692  0.333333    0.00197239 146 t-inv F
 -0.307692  0.307692  0.333333    0.00197239 147 t-inv F
 -0.230769  0.307692  0.333333    0.00197239 148 t-inv F
 -0.153846  0.307692  0.333333    0.00197239 149 t-inv F
 -0.076923  0.307692  0.333333    0.00197239 150 t-inv F
 -0.000000  0.384615  0.333333    0.00197239 151 t-inv F
  0.076923  0.384615  0.333333    0.00197239 152 t-inv F
  0.153846  0.384615  0.333333    0.00197239 153 t-inv F
  0.230769  0.384615  0.333333    0.00197239 154 t-inv F
  0.307692  0.384615  0.333333    0.00197239 155 t-inv F
  0.384615  0.384615  0.333333    0.00197239 156 t-inv F
  0.461538  0.384615  0.333333    0.00197239 157 t-inv F
 -0.461538  0.384615  0.333333    0.00197239 158 t-inv F
 -0.384615  0.384615  0.333333    0.00197239 159 t-inv F
 -0.307692  0.384615  0.333333    0.00197239 160 t-inv F
 -0.230769  0.384615  0.333333    0.00197239 161 t-inv F
 -0.153846  0.384615  0.333333    0.00197239 162 t-inv F
 -0.076923  0.384615  0.333333    0.00197239 163 t-inv F
  0.000000  0.461538  0.333333    0.00197239 164 t-inv F
  0.076923  0.461538  0.333333    0.00197239 165 t-inv F
  0.153846  0.461538  0.333333    0.00197239 166 t-inv F
  0.230769  0.461538  0.333333    0.00197239 167 t-inv F
  0.307692  0.461538  0.333333    0.00197239 168 t-inv F
  0.384615  0.461538  0.333333    0.00197239 169 t-inv F
  0.461538  0.461538  0.333333    0.00197239 170 t-inv F
 -0.461538  0.461538  0.333333    0.00197239 171 t-inv F
 -0.384615  0.461538  0.333333    0.00197239 172 t-inv F
 -0.307692  0.461538  0.333333    0.00197239 173 t-inv F
 -0.230769  0.461538  0.333333    0.00197239 174 t-inv F
 -0.153846  0.461538  0.333333    0.00197239 175 t-inv F
 -0.076923  0.461538  0.333333    0.00197239 176 t-inv F
  0.000000 -0.461538  0.333333    0.00197239 177 t-inv F
  0.076923 -0.461538  0.333333    0.00197239 178 t-inv F
  0.153846 -0.461538  0.333333    0.00197239 179 t-inv F
  0.230769 -0.461538  0.333333    0.00197239 180 t-inv F
  0.307692 -0.461538  0.333333    0.00197239 181 t-inv F
  0.384615 -0.461538  0.333333    0.00197239 182 t-inv F
  0.461538 -0.461538  0.333333    0.00197239 183 t-inv F
 -0.461538 -0.461538  0.333333    0.00197239 184 t-inv F
 -0.384615 -0.461538  0.333333    0.00197239 185 t-inv F
 -0.307692 -0.461538  0.333333    0.00197239 186 t-inv F
 -0.230769 -0.461538  0.333333    0.00197239 187 t-inv F
 -0.153846 -0.461538  0.333333    0.00197239 188 t-inv F
 -0.076923 -0.461538  0.333333    0.00197239 189 t-inv F
  0.000000 -0.384615  0.333333    0.00197239 190 t-inv F
  0.076923 -0.384615  0.333333    0.00197239 191 t-inv F
  0.153846 -0.384615  0.333333    0.00197239 192 t-inv F
  0.230769 -0.384615  0.333333    0.00197239 193 t-inv F
  0.307692 -0.384615  0.333333    0.00197239 194 t-inv F
  0.384615 -0.384615  0.333333    0.00197239 195 t-inv F
  0.461538 -0.384615  0.333333    0.00197239 196 t-inv F
 -0.461538 -0.384615  0.333333    0.00197239 197 t-inv F
 -0.384615 -0.384615  0.333333    0.00197239 198 t-inv F
 -0.307692 -0.384615  0.333333    0.00197239 199 t-inv F
 -0.230769 -0.384615  0.333333    0.00197239 200 t-inv F
 -0.153846 -0.384615  0.333333    0.00197239 201 t-inv F
 -0.076923 -0.384615  0.333333    0.00197239 202 t-inv F
 -0.000000 -0.307692  0.333333    0.00197239 203 t-inv F
  0.076923 -0.307692  0.333333    0.00197239 204 t-inv F
  0.153846 -0.307692  0.333333    0.00197239 205 t-inv F
  0.230769 -0.307692  0.333333    0.00197239 206 t-inv F
  0.307692 -0.307692  0.333333    0.00197239 207 t-inv F
  0.384615 -0.307692  0.333333    0.00197239 208 t-inv F
  0.461538 -0.307692  0.333333    0.00197239 209 t-inv F
 -0.461538 -0.307692  0.333333    0.00197239 210 t-inv F
 -0.384615 -0.307692  0.333333    0.00197239 211 t-inv F
 -0.307692 -0.307692  0.333333    0.00197239 212 t-inv F
 -0.230769 -0.307692  0.333333    0.00197239 213 t-inv F
 -0.153846 -0.307692  0.333333    0.00197239 214 t-inv F
 -0.076923 -0.307692  0.333333    0.00197239 215 t-inv F
  0.000000 -0.230769  0.333333    0.00197239 216 t-inv F
  0.076923 -0.230769  0.333333    0.00197239 217 t-inv F
  0.153846 -0.230769  0.333333    0.00197239 218 t-inv F
  0.230769 -0.230769  0.333333    0.00197239 219 t-inv F
  0.307692 -0.230769  0.333333    0.00197239 220 t-inv F
  0.384615 -0.230769  0.333333    0.00197239 221 t-inv F
  0.461538 -0.230769  0.333333    0.00197239 222 t-inv F
 -0.461538 -0.230769  0.333333    0.00197239 223 t-inv F
 -0.384615 -0.230769  0.333333    0.00197239 224 t-inv F
 -0.307692 -0.230769  0.333333    0.00197239 225 t-inv F
 -0.230769 -0.230769  0.333333    0.00197239 226 t-inv F
 -0.153846 -0.230769  0.333333    0.00197239 227 t-inv F
 -0.076923 -0.230769  0.333333    0.00197239 228 t-inv F
  0.000000 -0.153846  0.333333    0.00197239 229 t-inv F
  0.076923 -0.153846  0.333333    0.00197239 230 t-inv F
  0.153846 -0.153846  0.333333    0.00197239 231 t-inv F
  0.230769 -0.153846  0.333333    0.00197239 232 t-inv F
  0.307692 -0.153846  0.333333    0.00197239 233 t-inv F
  0.384615 -0.153846  0.333333    0.00197239 234 t-inv F
  0.461538 -0.153846  0.333333    0.00197239 235 t-inv F
 -0.461538 -0.153846  0.333333    0.00197239 236 t-inv F
 -0.384615 -0.153846  0.333333    0.00197239 237 t-inv F
 -0.307692 -0.153846  0.333333    0.00197239 238 t-inv F
 -0.230769 -0.153846  0.333333    0.00197239 239 t-inv F
 -0.153846 -0.153846  0.333333    0.00197239 240 t-inv F
 -0.076923 -0.153846  0.333333    0.00197239 241 t-inv F
  0.000000 -0.076923  0.333333    0.00197239 242 t-inv F
  0.076923 -0.076923  0.333333    0.00197239 243 t-inv F
  0.153846 -0.076923  0.333333    0.00197239 244 t-inv F
  0.230769 -0.076923  0.333333    0.00197239 245 t-inv F
  0.307692 -0.076923  0.333333    0.00197239 246 t-inv F
  0.384615 -0.076923  0.333333    0.00197239 247 t-inv F
  0.461538 -0.076923  0.333333    0.00197239 248 t-inv F
 -0.461538 -0.076923  0.333333    0.00197239 249 t-inv F
 -0.384615 -0.076923  0.333333    0.00197239 250 t-inv F
 -0.307692 -0.076923  0.333333    0.00197239 251 t-inv F
 -0.230769 -0.076923  0.333333    0.00197239 252 t-inv F
 -0.153846 -0.076923  0.333333    0.00197239 253 t-inv F
 -0.076923 -0.076923  0.333333    0.00197239 254 t-inv F
 -0.076923  0.000000  0.000000    0.00197239   2 t-inv T
 -0.153846  0.000000 -0.000000    0.00197239   3 t-inv T
 -0.230769  0.000000  0.000000    0.00197239   4 t-inv T
 -0.307692  0.000000  0.000000    0.00197239   5 t-inv T
 -0.384615 -0.000000  0.000000    0.00197239   6 t-inv T
 -0.461538  0.000000  0.000000    0.00197239   7 t-inv T
 -0.000000 -0.076923  0.000000    0.00197239   8 t-inv T
 -0.076923 -0.076923  0.000000    0.00197239   9 t-inv T
 -0.153846 -0.076923  0.000000    0.00197239  10 t-inv T
 -0.230769 -0.076923  0.000000    0.00197239  11 t-inv T
 -0.307692 -0.076923  0.000000    0.00197239  12 t-inv T
 -0.384615 -0.076923  0.000000    0.00197239  13 t-inv T
 -0.461538 -0.076923 -0.000000    0.00197239  14 t-inv T
  0.461538 -0.076923 -0.000000    0.00197239  15 t-inv T
  0.384615 -0.076923  0.000000    0.00197239  16 t-inv T
  0.307692 -0.076923 -0.000000    0.00197239  17 t-inv T
  0.230769 -0.076923 -0.000000    0.00197239  18 t-inv T
  0.153846 -0.076923 -0.000000    0.00197239  19 t-inv T
  0.076923 -0.076923  0.000000    0.00197239  20 t-inv T
 -0.000000 -0.153846  0.000000    0.00197239  21 t-inv T
 -0.076923 -0.153846  0.000000    0.00197239  22 t-inv T
 -0.153846 -0.153846  0.000000    0.00197239  23 t-inv T
 -0.230769 -0.153846  0.000000    0.00197239  24 t-inv T
 -0.307692 -0.153846  0.000000    0.00197239  25 t-inv T
 -0.384615 -0.153846  0.000000    0.00197239  26 t-inv T
 -0.461538 -0.153846  0.000000    0.00197239  27 t-inv T
  0.461538 -0.153846 -0.000000    0.00197239  28 t-inv T
  0.384615 -0.153846 -0.000000    0.00197239  29 t-inv T
  0.307692 -0.153846 -0.000000    0.00197239  30 t-inv T
  0.230769 -0.153846 -0.000000    0.00197239  31 t-inv T
  0.153846 -0.153846 -0.000000    0.00197239  32 t-inv T
  0.076923 -0.153846  0.000000    0.00197239  33 t-inv T
 -0.000000 -0.230769  0.000000    0.00197239  34 t-inv T
 -0.076923 -0.230769 -0.000000    0.00197239  35 t-inv T
 -0.153846 -0.230769  0.000000    0.00197239  36 t-inv T
 -0.230769 -0.230769  0.000000    0.00197239  37 t-inv T
 -0.307692 -0.230769  0.000000    0.00197239  38 t-inv T
 -0.384615 -0.230769  0.000000    0.00197239  39 t-inv T
 -0.461538 -0.230769  0.000000    0.00197239  40 t-inv T
  0.461538 -0.230769 -0.000000    0.00197239  41 t-inv T
  0.384615 -0.230769 -0.000000    0.00197239  42 t-inv T
  0.307692 -0.230769 -0.000000    0.00197239  43 t-inv T
  0.230769 -0.230769 -0.000000    0.00197239  44 t-inv T
  0.153846 -0.230769 -0.000000    0.00197239  45 t-inv T
  0.076923 -0.230769  0.000000    0.00197239  46 t-inv T
 -0.000000 -0.307692  0.000000    0.00197239  47 t-inv T
 -0.076923 -0.307692  0.000000    0.00197239  48 t-inv T
 -0.153846 -0.307692  0.000000    0.00197239  49 t-inv T
 -0.230769 -0.307692  0.000000    0.00197239  50 t-inv T
 -0.307692 -0.307692  0.000000    0.00197239  51 t-inv T
 -0.384615 -0.307692  0.000000    0.00197239  52 t-inv T
 -0.461538 -0.307692  0.000000    0.00197239  53 t-inv T
  0.461538 -0.307692 -0.000000    0.00197239  54 t-inv T
  0.384615 -0.307692 -0.000000    0.00197239  55 t-inv T
  0.307692 -0.307692 -0.000000    0.00197239  56 t-inv T
  0.230769 -0.307692  0.000000    0.00197239  57 t-inv T
  0.153846 -0.307692  0.000000    0.00197239  58 t-inv T
  0.076923 -0.307692  0.000000    0.00197239  59 t-inv T
 -0.000000 -0.384615 -0.000000    0.00197239  60 t-inv T
 -0.076923 -0.384615  0.000000    0.00197239  61 t-inv T
 -0.153846 -0.384615  0.000000    0.00197239  62 t-inv T
 -0.230769 -0.384615  0.000000    0.00197239  63 t-inv T
 -0.307692 -0.384615  0.000000    0.00197239  64 t-inv T
 -0.384615 -0.384615  0.000000    0.00197239  65 t-inv T
 -0.461538 -0.384615  0.000000    0.00197239  66 t-inv T
  0.461538 -0.384615  0.000000    0.00197239  67 t-inv T
  0.384615 -0.384615 -0.000000    0.00197239  68 t-inv T
  0.307692 -0.384615  0.000000    0.00197239  69 t-inv T
  0.230769 -0.384615  0.000000    0.00197239  70 t-inv T
  0.153846 -0.384615  0.000000    0.00197239  71 t-inv T
  0.076923 -0.384615 -0.000000    0.00197239  72 t-inv T
 -0.000000 -0.461538  0.000000    0.00197239  73 t-inv T
 -0.076923 -0.461538  0.000000    0.00197239  74 t-inv T
 -0.153846 -0.461538  0.000000    0.00197239  75 t-inv T
 -0.230769 -0.461538  0.000000    0.00197239  76 t-inv T
 -0.307692 -0.461538  0.000000    0.00197239  77 t-inv T
 -0.384615 -0.461538  0.000000    0.00197239  78 t-inv T
 -0.461538 -0.461538  0.000000    0.00197239  79 t-inv T
  0.461538 -0.461538 -0.000000    0.00197239  80 t-inv T
  0.384615 -0.461538  0.000000    0.00197239  81 t-inv T
  0.307692 -0.461538 -0.000000    0.00197239  82 t-inv T
  0.230769 -0.461538 -0.000000    0.00197239  83 t-inv T
  0.153846 -0.461538  0.000000    0.00197239  84 t-inv T
  0.076923 -0.461538 -0.000000    0.00197239  85 t-inv T
 -0.000000  0.000000 -0.333333    0.00197239  86 t-inv T
 -0.076923 -0.000000 -0.333333    0.00197239  87 t-inv T
 -0.153846  0.000000 -0.333333    0.00197239  88 t-inv T
 -0.230769  0.000000 -0.333333    0.00197239  89 t-inv T
 -0.307692  0.000000 -0.333333    0.00197239  90 t-inv T
 -0.384615  0.000000 -0.333333    0.00197239  91 t-inv T
 -0.461538  0.000000 -0.333333    0.00197239  92 t-inv T
  0.461538 -0.000000 -0.333333    0.00197239  93 t-inv T
  0.384615  0.000000 -0.333333    0.00197239  94 t-inv T
  0.307692  0.000000 -0.333333    0.00197239  95 t-inv T
  0.230769 -0.000000 -0.333333    0.00197239  96 t-inv T
  0.153846  0.000000 -0.333333    0.00197239  97 t-inv T
  0.076923 -0.000000 -0.333333    0.00197239  98 t-inv T
  0.000000 -0.076923 -0.333333    0.00197239  99 t-inv T
 -0.076923 -0.076923 -0.333333    0.00197239 100 t-inv T
 -0.153846 -0.076923 -0.333333    0.00197239 101 t-inv T
 -0.230769 -0.076923 -0.333333    0.00197239 102 t-inv T
 -0.307692 -0.076923 -0.333333    0.00197239 103 t-inv T
 -0.384615 -0.076923 -0.333333    0.00197239 104 t-inv T
 -0.461538 -0.076923 -0.333333    0.00197239 105 t-inv T
  0.461538 -0.076923 -0.333333    0.00197239 106 t-inv T
  0.384615 -0.076923 -0.333333    0.00197239 107 t-inv T
  0.307692 -0.076923 -0.333333    0.00197239 108 t-inv T
  0.230769 -0.076923 -0.333333    0.00197239 109 t-inv T
  0.153846 -0.076923 -0.333333    0.00197239 110 t-inv T
  0.076923 -0.076923 -0.333333    0.00197239 111 t-inv T
 -0.000000 -0.153846 -0.333333    0.00197239 112 t-inv T
 -0.076923 -0.153846 -0.333333    0.00197239 113 t-inv T
 -0.153846 -0.153846 -0.333333    0.00197239 114 t-inv T
 -0.230769 -0.153846 -0.333333    0.00197239 115 t-inv T
 -0.307692 -0.153846 -0.333333    0.00197239 116 t-inv T
 -0.384615 -0.153846 -0.333333    0.00197239 117 t-inv T
 -0.461538 -0.153846 -0.333333    0.00197239 118 t-inv T
  0.461538 -0.153846 -0.333333    0.00197239 119 t-inv T
  0.384615 -0.153846 -0.333333    0.00197239 120 t-inv T
  0.307692 -0.153846 -0.333333    0.00197239 121 t-inv T
  0.230769 -0.153846 -0.333333    0.00197239 122 t-inv T
  0.153846 -0.153846 -0.333333    0.00197239 123 t-inv T
  0.076923 -0.153846 -0.333333    0.00197239 124 t-inv T
 -0.000000 -0.230769 -0.333333    0.00197239 125 t-inv T
 -0.076923 -0.230769 -0.333333    0.00197239 126 t-inv T
 -0.153846 -0.230769 -0.333333    0.00197239 127 t-inv T
 -0.230769 -0.230769 -0.333333    0.00197239 128 t-inv T
 -0.307692 -0.230769 -0.333333    0.00197239 129 t-inv T
 -0.384615 -0.230769 -0.333333    0.00197239 130 t-inv T
 -0.461538 -0.230769 -0.333333    0.00197239 131 t-inv T
  0.461538 -0.230769 -0.333333    0.00197239 132 t-inv T
  0.384615 -0.230769 -0.333333    0.00197239 133 t-inv T
  0.307692 -0.230769 -0.333333    0.00197239 134 t-inv T
  0.230769 -0.230769 -0.333333    0.00197239 135 t-inv T
  0.153846 -0.230769 -0.333333    0.00197239 136 t-inv T
  0.076923 -0.230769 -0.333333    0.00197239 137 t-inv T
 -0.000000 -0.307692 -0.333333    0.00197239 138 t-inv T
 -0.076923 -0.307692 -0.333333    0.00197239 139 t-inv T
 -0.153846 -0.307692 -0.333333    0.00197239 140 t-inv T
 -0.230769 -0.307692 -0.333333    0.00197239 141 t-inv T
 -0.307692 -0.307692 -0.333333    0.00197239 142 t-inv T
 -0.384615 -0.307692 -0.333333    0.00197239 143 t-inv T
 -0.461538 -0.307692 -0.333333    0.00197239 144 t-inv T
  0.461538 -0.307692 -0.333333    0.00197239 145 t-inv T
  0.384615 -0.307692 -0.333333    0.00197239 146 t-inv T
  0.307692 -0.307692 -0.333333    0.00197239 147 t-inv T
  0.230769 -0.307692 -0.333333    0.00197239 148 t-inv T
  0.153846 -0.307692 -0.333333    0.00197239 149 t-inv T
  0.076923 -0.307692 -0.333333    0.00197239 150 t-inv T
  0.000000 -0.384615 -0.333333    0.00197239 151 t-inv T
 -0.076923 -0.384615 -0.333333    0.00197239 152 t-inv T
 -0.153846 -0.384615 -0.333333    0.00197239 153 t-inv T
 -0.230769 -0.384615 -0.333333    0.00197239 154 t-inv T
 -0.307692 -0.384615 -0.333333    0.00197239 155 t-inv T
 -0.384615 -0.384615 -0.333333    0.00197239 156 t-inv T
 -0.461538 -0.384615 -0.333333    0.00197239 157 t-inv T
  0.461538 -0.384615 -0.333333    0.00197239 158 t-inv T
  0.384615 -0.384615 -0.333333    0.00197239 159 t-inv T
  0.307692 -0.384615 -0.333333    0.00197239 160 t-inv T
  0.230769 -0.384615 -0.333333    0.00197239 161 t-inv T
  0.153846 -0.384615 -0.333333    0.00197239 162 t-inv T
  0.076923 -0.384615 -0.333333    0.00197239 163 t-inv T
 -0.000000 -0.461538 -0.333333    0.00197239 164 t-inv T
 -0.076923 -0.461538 -0.333333    0.00197239 165 t-inv T
 -0.153846 -0.461538 -0.333333    0.00197239 166 t-inv T
 -0.230769 -0.461538 -0.333333    0.00197239 167 t-inv T
 -0.307692 -0.461538 -0.333333    0.00197239 168 t-inv T
 -0.384615 -0.461538 -0.333333    0.00197239 169 t-inv T
 -0.461538 -0.461538 -0.333333    0.00197239 170 t-inv T
  0.461538 -0.461538 -0.333333    0.00197239 171 t-inv T
  0.384615 -0.461538 -0.333333    0.00197239 172 t-inv T
  0.307692 -0.461538 -0.333333    0.00197239 173 t-inv T
  0.230769 -0.461538 -0.333333    0.00197239 174 t-inv T
  0.153846 -0.461538 -0.333333    0.00197239 175 t-inv T
  0.076923 -0.461538 -0.333333    0.00197239 176 t-inv T
 -0.000000  0.461538 -0.333333    0.00197239 177 t-inv T
 -0.076923  0.461538 -0.333333    0.00197239 178 t-inv T
 -0.153846  0.461538 -0.333333    0.00197239 179 t-inv T
 -0.230769  0.461538 -0.333333    0.00197239 180 t-inv T
 -0.307692  0.461538 -0.333333    0.00197239 181 t-inv T
 -0.384615  0.461538 -0.333333    0.00197239 182 t-inv T
 -0.461538  0.461538 -0.333333    0.00197239 183 t-inv T
  0.461538  0.461538 -0.333333    0.00197239 184 t-inv T
  0.384615  0.461538 -0.333333    0.00197239 185 t-inv T
  0.307692  0.461538 -0.333333    0.00197239 186 t-inv T
  0.230769  0.461538 -0.333333    0.00197239 187 t-inv T
  0.153846  0.461538 -0.333333    0.00197239 188 t-inv T
  0.076923  0.461538 -0.333333    0.00197239 189 t-inv T
 -0.000000  0.384615 -0.333333    0.00197239 190 t-inv T
 -0.076923  0.384615 -0.333333    0.00197239 191 t-inv T
 -0.153846  0.384615 -0.333333    0.00197239 192 t-inv T
 -0.230769  0.384615 -0.333333    0.00197239 193 t-inv T
 -0.307692  0.384615 -0.333333    0.00197239 194 t-inv T
 -0.384615  0.384615 -0.333333    0.00197239 195 t-inv T
 -0.461538  0.384615 -0.333333    0.00197239 196 t-inv T
  0.461538  0.384615 -0.333333    0.00197239 197 t-inv T
  0.384615  0.384615 -0.333333    0.00197239 198 t-inv T
  0.307692  0.384615 -0.333333    0.00197239 199 t-inv T
  0.230769  0.384615 -0.333333    0.00197239 200 t-inv T
  0.153846  0.384615 -0.333333    0.00197239 201 t-inv T
  0.076923  0.384615 -0.333333    0.00197239 202 t-inv T
  0.000000  0.307692 -0.333333    0.00197239 203 t-inv T
 -0.076923  0.307692 -0.333333    0.00197239 204 t-inv T
 -0.153846  0.307692 -0.333333    0.00197239 205 t-inv T
 -0.230769  0.307692 -0.333333    0.00197239 206 t-inv T
 -0.307692  0.307692 -0.333333    0.00197239 207 t-inv T
 -0.384615  0.307692 -0.333333    0.00197239 208 t-inv T
 -0.461538  0.307692 -0.333333    0.00197239 209 t-inv T
  0.461538  0.307692 -0.333333    0.00197239 210 t-inv T
  0.384615  0.307692 -0.333333    0.00197239 211 t-inv T
  0.307692  0.307692 -0.333333    0.00197239 212 t-inv T
  0.230769  0.307692 -0.333333    0.00197239 213 t-inv T
  0.153846  0.307692 -0.333333    0.00197239 214 t-inv T
  0.076923  0.307692 -0.333333    0.00197239 215 t-inv T
 -0.000000  0.230769 -0.333333    0.00197239 216 t-inv T
 -0.076923  0.230769 -0.333333    0.00197239 217 t-inv T
 -0.153846  0.230769 -0.333333    0.00197239 218 t-inv T
 -0.230769  0.230769 -0.333333    0.00197239 219 t-inv T
 -0.307692  0.230769 -0.333333    0.00197239 220 t-inv T
 -0.384615  0.230769 -0.333333    0.00197239 221 t-inv T
 -0.461538  0.230769 -0.333333    0.00197239 222 t-inv T
  0.461538  0.230769 -0.333333    0.00197239 223 t-inv T
  0.384615  0.230769 -0.333333    0.00197239 224 t-inv T
  0.307692  0.230769 -0.333333    0.00197239 225 t-inv T
  0.230769  0.230769 -0.333333    0.00197239 226 t-inv T
  0.153846  0.230769 -0.333333    0.00197239 227 t-inv T
  0.076923  0.230769 -0.333333    0.00197239 228 t-inv T
 -0.000000  0.153846 -0.333333    0.00197239 229 t-inv T
 -0.076923  0.153846 -0.333333    0.00197239 230 t-inv T
 -0.153846  0.153846 -0.333333    0.00197239 231 t-inv T
 -0.230769  0.153846 -0.333333    0.00197239 232 t-inv T
 -0.307692  0.153846 -0.333333    0.00197239 233 t-inv T
 -0.384615  0.153846 -0.333333    0.00197239 234 t-inv T
 -0.461538  0.153846 -0.333333    0.00197239 235 t-inv T
  0.461538  0.153846 -0.333333    0.00197239 236 t-inv T
  0.384615  0.153846 -0.333333    0.00197239 237 t-inv T
  0.307692  0.153846 -0.333333    0.00197239 238 t-inv T
  0.230769  0.153846 -0.333333    0.00197239 239 t-inv T
  0.153846  0.153846 -0.333333    0.00197239 240 t-inv T
  0.076923  0.153846 -0.333333    0.00197239 241 t-inv T
 -0.000000  0.076923 -0.333333    0.00197239 242 t-inv T
 -0.076923  0.076923 -0.333333    0.00197239 243 t-inv T
 -0.153846  0.076923 -0.333333    0.00197239 244 t-inv T
 -0.230769  0.076923 -0.333333    0.00197239 245 t-inv T
 -0.307692  0.076923 -0.333333    0.00197239 246 t-inv T
 -0.384615  0.076923 -0.333333    0.00197239 247 t-inv T
 -0.461538  0.076923 -0.333333    0.00197239 248 t-inv T
  0.461538  0.076923 -0.333333    0.00197239 249 t-inv T
  0.384615  0.076923 -0.333333    0.00197239 250 t-inv T
  0.307692  0.076923 -0.333333    0.00197239 251 t-inv T
  0.230769  0.076923 -0.333333    0.00197239 252 t-inv T
  0.153846  0.076923 -0.333333    0.00197239 253 t-inv T
  0.076923  0.076923 -0.333333    0.00197239 254 t-inv T


--------------------------------------------------------------------------------------------------------




 Dimension of arrays:
   k-points           NKPTS =    254   k-points in BZ     NKDIM =    254   number of bands    NBANDS=     10
   number of dos      NEDOS =    301   number of ions     NIONS =      4
   non local maximal  LDIM  =      4   non local SUM 2l+1 LMDIM =      8
   total plane-waves  NPLWV =  64512
   max r-space proj   IRMAX =      1   max aug-charges    IRDMAX=   8898
   dimension x,y,z NGX =    24 NGY =   24 NGZ =  112
   dimension x,y,z NGXF=    48 NGYF=   48 NGZF=  224
   support grid    NGXF=    48 NGYF=   48 NGZF=  224
   ions per type =               2   2
   NGX,Y,Z   is equivalent  to a cutoff of  10.26, 10.26,  9.84 a.u.
   NGXF,Y,Z  is equivalent  to a cutoff of  20.52, 20.52, 19.67 a.u.

 SYSTEM =  unknown system                          
 POSCAR =  Si  H                                   

 Startparameter for this run:
   NWRITE =      3    write-flag & timer
   PREC   = normal    normal or accurate (medium, high low for compatibility)
   ISTART =      1    job   : 0-new  1-cont  2-samecut
   ICHARG =      0    charge: 1-file 2-atom 10-const
   ISPIN  =      1    spin polarized calculation?
   LNONCOLLINEAR =      F non collinear calculations
   LSORBIT =      F    spin-orbit coupling
   INIWAV =      1    electr: 0-lowe 1-rand  2-diag
   LASPH  =      F    aspherical Exc in radial PAW
   METAGGA=      F    non-selfconsistent MetaGGA calc.

 Electronic Relaxation 1
   ENCUT  =  550.0 eV  40.42 Ry    6.36 a.u.   7.44  7.44 36.20*2*pi/ulx,y,z
   ENINI  =  550.0     initial cutoff
   ENAUG  =  400.0 eV  augmentation charge cutoff
   NELM   =     60;   NELMIN=  2; NELMDL=  0     # of ELM steps 
   EDIFF  = 0.1E-04   stopping-criterion for ELM
   LREAL  =      F    real-space projection
   NLSPLINE    = F    spline interpolate recip. space projectors
   LCOMPAT=      F    compatible to vasp.4.4
   GGA_COMPAT  = T    GGA compatible to vasp.4.4-vasp.4.6
   LMAXPAW     = -100 max onsite density
   LMAXMIX     =    2 max onsite mixed and CHGCAR
   VOSKOWN=      0    Vosko Wilk Nusair interpolation
   ROPT   =    0.00000   0.00000
 Ionic relaxation
   EDIFFG = -.1E-01   stopping-criterion for IOM
   NSW    =      1    number of steps for IOM
   NBLOCK =      1;   KBLOCK =      1    inner block; outer block 
   IBRION =      7    ionic relax: 0-MD 1-quasi-New 2-CG
   NFREE  =      0    steps in history (QN), initial steepest desc. (CG)
   ISIF   =      3    stress and relaxation
   IWAVPR =     11    prediction:  0-non 1-charg 2-wave 3-comb
   ISYM   =      0    0-nonsym 1-usesym 2-fastsym
   LCORR  =      T    Harris-Foulkes like correction to forces

   POTIM  = 0.5000    time-step for ionic-motion
   TEIN   =    0.0    initial temperature
   TEBEG  =    0.0;   TEEND  =   0.0 temperature during run
   SMASS  =  -3.00    Nose mass-parameter (am)
   estimated Nose-frequenzy (Omega)   =  0.10E-29 period in steps =****** mass=  -0.346E-27a.u.
   SCALEE = 1.0000    scale energy and forces
   NPACO  =    256;   APACO  = 16.0  distance and # of slots for P.C.
   PSTRESS=    0.0 pullay stress

  Mass of Ions in am
   POMASS =  28.09  1.00
  Ionic Valenz
   ZVAL   =   4.00  1.00
  Atomic Wigner-Seitz radii
   RWIGS  =  -1.00 -1.00
  virtual crystal weights 
   VCA    =   1.00  1.00
   NELECT =      10.0000    total number of electrons
   NUPDOWN=      -1.0000    fix difference up-down

 DOS related values:
   EMIN   =  10.00;   EMAX   =-10.00  energy-range for DOS
   EFERMI =   0.00
   ISMEAR =    -5;   SIGMA  =   0.10  broadening in eV -4-tet -1-fermi 0-gaus

 Electronic relaxation 2 (details)
   IALGO  =     38    algorithm
   LDIAG  =      T    sub-space diagonalisation (order eigenvalues)
   LSUBROT=      F    optimize rotation matrix (better conditioning)
   TURBO    =      0    0=normal 1=particle mesh
   IRESTART =      0    0=no restart 2=restart with 2 vectors
   NREBOOT  =      0    no. of reboots
   NMIN     =      0    reboot dimension
   EREF     =   0.00    reference energy to select bands
   IMIX   =      4    mixing-type and parameters
     AMIX     =   0.40;   BMIX     =  1.00
     AMIX_MAG =   1.60;   BMIX_MAG =  1.00
     AMIN     =   0.10
     WC   =   100.;   INIMIX=   1;  MIXPRE=   1;  MAXMIX= -45

 Intra band minimization:
   WEIMIN = 0.0010     energy-eigenvalue tresh-hold
   EBREAK =  0.25E-06  absolut break condition
   DEPER  =   0.30     relativ break condition  

   TIME   =   0.40     timestep for ELM

  volume/ion in A,a.u.               =      61.99       418.32
  Fermi-wavevector in a.u.,A,eV,Ry     =   0.561416  1.060922  4.288391  0.315188
  Thomas-Fermi vector in A             =   1.597704
 
 Write flags
   LWAVE        =      T    write WAVECAR
   LDOWNSAMPLE  =      F    k-point downsampling of WAVECAR
   LCHARG       =      T    write CHGCAR
   LVTOT        =      F    write LOCPOT, total local potential
   LVHAR        =      F    write LOCPOT, Hartree potential only
   LELF         =      F    write electronic localiz. function (ELF)
   LORBIT       =      0    0 simple, 1 ext, 2 COOP (PROOUT), +10 PAW based schemes


 Dipole corrections
   LMONO  =      F    monopole corrections only (constant potential shift)
   LDIPOL =      F    correct potential (dipole corrections)
   IDIPOL =      0    1-x, 2-y, 3-z, 4-all directions 
   EPSILON=  1.0000000 bulk dielectric constant

 Exchange correlation treatment:
   GGA     =    --    GGA type
   LEXCH   =     8    internal setting for exchange type
   VOSKOWN=      0    Vosko Wilk Nusair interpolation
   LHFCALC =     F    Hartree Fock is set to
   LHFONE  =     F    Hartree Fock one center treatment
   AEXX    =    0.0000 exact exchange contribution

 Linear response parameters
   LEPSILON=     T    determine dielectric tensor
   LRPA    =     F    only Hartree local field effects (RPA)
   LNABLA  =     F    use nabla operator in PAW spheres
   LVEL    =     F    velocity operator in full k-point grid
   LINTERFAST=   F  fast interpolation
   KINTER  =     0    interpolate to denser k-point grid
   CSHIFT  =0.1000    complex shift for real part using Kramers Kronig
   OMEGAMAX=  -1.0    maximum frequency
   DEG_THRESHOLD= 0.2000000E-02 threshold for treating states as degnerate
   RTIME   =   -0.100 relaxation time in fs
  (WPLASMAI=    0.000 imaginary part of plasma frequency in eV, 0.658/RTIME)
   DFIELD  = 0.0000000 0.0000000 0.0000000 field for delta impulse in time
 
 Orbital magnetization related:
   ORBITALMAG=     F  switch on orbital magnetization
   LCHIMAG   =     F  perturbation theory with respect to B field
   DQ        =  0.001000  dq finite difference perturbation B field
   LLRAUG    =     F  two centre corrections for induced B field



--------------------------------------------------------------------------------------------------------


 linear response
 charge density and potential will be updated during run
 non-spin polarized calculation
 Variant of blocked Davidson
 Davidson routine will perform the subspace rotation
 perform sub-space diagonalisation
    after iterative eigenvector-optimisation
 modified Broyden-mixing scheme, WC =      100.0
 initial mixing is a Kerker type mixing with AMIX =  0.4000 and BMIX =      1.0000
 Hartree-type preconditioning will be used
 using additional bands            5
 reciprocal scheme for non local part
 use partial core corrections
 calculate Harris-corrections to forces 
   (improved forces if not selfconsistent)
 use gradient corrections 
 use of overlap-Matrix (Vanderbilt PP)
 Fermi weights with tetrahedron method with Bloechl corrections


--------------------------------------------------------------------------------------------------------


  energy-cutoff  :      550.00
  volume of cell :      247.95
      direct lattice vectors                 reciprocal lattice vectors
     3.888945790 -0.000000120  0.000019060     0.257139099  0.148459339 -0.000000865
    -1.944473000  3.367925780 -0.000019060     0.000000009  0.296918662  0.000000865
     0.000095480 -0.000055120 18.931102620    -0.000000259  0.000000149  0.052823125

  length of vectors
     3.888945790  3.888945784 18.931102620     0.296918662  0.296918662  0.052823125


 
 old parameters found on file WAVECAR:
  energy-cutoff  :      550.00
  volume of cell :      247.95
      direct lattice vectors                 reciprocal lattice vectors
     3.888945790 -0.000000120  0.000019060     0.257139099  0.148459339 -0.000000865
    -1.944473000  3.367925780 -0.000019060     0.000000009  0.296918662  0.000000865
     0.000095480 -0.000055120 18.931102620    -0.000000259  0.000000149  0.052823125

  length of vectors

 
 k-points in units of 2pi/SCALE and weight: Automatic                               
   0.00000000  0.00000000  0.00000000       0.002
   0.01977993  0.01141995 -0.00000007       0.004
   0.03955986  0.02283990 -0.00000013       0.004
   0.05933979  0.03425985 -0.00000020       0.004
   0.07911972  0.04567980 -0.00000027       0.004
   0.09889965  0.05709975 -0.00000033       0.004
   0.11867958  0.06851970 -0.00000040       0.004
   0.00000000  0.02283990  0.00000007       0.004
   0.01977993  0.03425985 -0.00000000       0.004
   0.03955986  0.04567980 -0.00000007       0.004
   0.05933979  0.05709974 -0.00000013       0.004
   0.07911972  0.06851969 -0.00000020       0.004
   0.09889965  0.07993964 -0.00000027       0.004
   0.11867959  0.09135959 -0.00000033       0.004
  -0.11867958 -0.04567980  0.00000047       0.004
  -0.09889965 -0.03425985  0.00000040       0.004
  -0.07911972 -0.02283990  0.00000033       0.004
  -0.05933979 -0.01141995  0.00000027       0.004
  -0.03955986 -0.00000000  0.00000020       0.004
  -0.01977993  0.01141995  0.00000013       0.004
   0.00000000  0.04567979  0.00000013       0.004
   0.01977993  0.05709974  0.00000007       0.004
   0.03955986  0.06851969 -0.00000000       0.004
   0.05933979  0.07993964 -0.00000007       0.004
   0.07911972  0.09135959 -0.00000013       0.004
   0.09889966  0.10277954 -0.00000020       0.004
   0.11867959  0.11419949 -0.00000027       0.004
  -0.11867958 -0.02283990  0.00000053       0.004
  -0.09889965 -0.01141995  0.00000047       0.004
  -0.07911972 -0.00000000  0.00000040       0.004
  -0.05933979  0.01141995  0.00000033       0.004
  -0.03955986  0.02283990  0.00000027       0.004
  -0.01977993  0.03425985  0.00000020       0.004
   0.00000000  0.06851969  0.00000020       0.004
   0.01977993  0.07993964  0.00000013       0.004
   0.03955986  0.09135959  0.00000007       0.004
   0.05933979  0.10277954 -0.00000000       0.004
   0.07911972  0.11419949 -0.00000007       0.004
   0.09889966  0.12561944 -0.00000013       0.004
   0.11867959  0.13703939 -0.00000020       0.004
  -0.11867958 -0.00000000  0.00000060       0.004
  -0.09889965  0.01141995  0.00000053       0.004
  -0.07911972  0.02283989  0.00000047       0.004
  -0.05933979  0.03425984  0.00000040       0.004
  -0.03955986  0.04567979  0.00000033       0.004
  -0.01977993  0.05709974  0.00000027       0.004
   0.00000000  0.09135959  0.00000027       0.004
   0.01977993  0.10277954  0.00000020       0.004
   0.03955986  0.11419949  0.00000013       0.004
   0.05933979  0.12561944  0.00000007       0.004
   0.07911973  0.13703939 -0.00000000       0.004
   0.09889966  0.14845933 -0.00000007       0.004
   0.11867959  0.15987928 -0.00000013       0.004
  -0.11867958  0.02283989  0.00000067       0.004
  -0.09889965  0.03425984  0.00000060       0.004
  -0.07911972  0.04567979  0.00000053       0.004
  -0.05933979  0.05709974  0.00000047       0.004
  -0.03955986  0.06851969  0.00000040       0.004
  -0.01977993  0.07993964  0.00000033       0.004
   0.00000000  0.11419949  0.00000033       0.004
   0.01977993  0.12561943  0.00000027       0.004
   0.03955986  0.13703938  0.00000020       0.004
   0.05933980  0.14845933  0.00000013       0.004
   0.07911973  0.15987928  0.00000007       0.004
   0.09889966  0.17129923 -0.00000000       0.004
   0.11867959  0.18271918 -0.00000007       0.004
  -0.11867958  0.04567979  0.00000073       0.004
  -0.09889965  0.05709974  0.00000067       0.004
  -0.07911972  0.06851969  0.00000060       0.004
  -0.05933979  0.07993964  0.00000053       0.004
  -0.03955986  0.09135959  0.00000047       0.004
  -0.01977993  0.10277954  0.00000040       0.004
   0.00000000  0.13703938  0.00000040       0.004
   0.01977993  0.14845933  0.00000033       0.004
   0.03955987  0.15987928  0.00000027       0.004
   0.05933980  0.17129923  0.00000020       0.004
   0.07911973  0.18271918  0.00000013       0.004
   0.09889966  0.19413913  0.00000007       0.004
   0.11867959  0.20555908 -0.00000000       0.004
  -0.11867958  0.06851969  0.00000080       0.004
  -0.09889965  0.07993964  0.00000073       0.004
  -0.07911972  0.09135959  0.00000067       0.004
  -0.05933979  0.10277954  0.00000060       0.004
  -0.03955986  0.11419948  0.00000053       0.004
  -0.01977993  0.12561943  0.00000047       0.004
  -0.00000009  0.00000005  0.01760771       0.004
   0.01977984  0.01142000  0.01760764       0.004
   0.03955978  0.02283995  0.01760758       0.004
   0.05933971  0.03425990  0.01760751       0.004
   0.07911964  0.04567985  0.01760744       0.004
   0.09889957  0.05709980  0.01760738       0.004
   0.11867950  0.06851974  0.01760731       0.004
  -0.11867967 -0.06851965  0.01760811       0.004
  -0.09889974 -0.05709970  0.01760804       0.004
  -0.07911981 -0.04567975  0.01760797       0.004
  -0.05933988 -0.03425980  0.01760791       0.004
  -0.03955995 -0.02283985  0.01760784       0.004
  -0.01978002 -0.01141990  0.01760777       0.004
  -0.00000009  0.02283995  0.01760777       0.004
   0.01977985  0.03425990  0.01760771       0.004
   0.03955978  0.04567985  0.01760764       0.004
   0.05933971  0.05709979  0.01760758       0.004
   0.07911964  0.06851974  0.01760751       0.004
   0.09889957  0.07993969  0.01760744       0.004
   0.11867950  0.09135964  0.01760738       0.004
  -0.11867967 -0.04567975  0.01760817       0.004
  -0.09889974 -0.03425980  0.01760811       0.004
  -0.07911981 -0.02283985  0.01760804       0.004
  -0.05933988 -0.01141990  0.01760797       0.004
  -0.03955995  0.00000005  0.01760791       0.004
  -0.01978002  0.01142000  0.01760784       0.004
  -0.00000008  0.04567984  0.01760784       0.004
   0.01977985  0.05709979  0.01760777       0.004
   0.03955978  0.06851974  0.01760771       0.004
   0.05933971  0.07993969  0.01760764       0.004
   0.07911964  0.09135964  0.01760758       0.004
   0.09889957  0.10277959  0.01760751       0.004
   0.11867950  0.11419954  0.01760744       0.004
  -0.11867967 -0.02283985  0.01760824       0.004
  -0.09889974 -0.01141990  0.01760817       0.004
  -0.07911981  0.00000005  0.01760811       0.004
  -0.05933988  0.01142000  0.01760804       0.004
  -0.03955995  0.02283995  0.01760797       0.004
  -0.01978002  0.03425989  0.01760791       0.004
  -0.00000008  0.06851974  0.01760791       0.004
   0.01977985  0.07993969  0.01760784       0.004
   0.03955978  0.09135964  0.01760777       0.004
   0.05933971  0.10277959  0.01760771       0.004
   0.07911964  0.11419954  0.01760764       0.004
   0.09889957  0.12561949  0.01760758       0.004
   0.11867950  0.13703944  0.01760751       0.004
  -0.11867967  0.00000005  0.01760831       0.004
  -0.09889974  0.01142000  0.01760824       0.004
  -0.07911981  0.02283994  0.01760817       0.004
  -0.05933988  0.03425989  0.01760811       0.004
  -0.03955995  0.04567984  0.01760804       0.004
  -0.01978001  0.05709979  0.01760797       0.004
  -0.00000008  0.09135964  0.01760797       0.004
   0.01977985  0.10277959  0.01760791       0.004
[...]
 ------------------------------------------------------
           2.771681     0.000002     0.000008
           0.000002     2.771681    -0.000005
           0.000008    -0.000005     1.238842
 ------------------------------------------------------


 PIEZOELECTRIC TENSOR (including local field effects)  for field in x, y, z        (e  Angst)
          XX          YY          ZZ          XY          YZ          ZX
  --------------------------------------------------------------------------------
  x    -0.00016     0.00022     0.00004     0.00041    -0.00005    -0.00002
  y    -0.00079     0.00077    -0.00011     0.00001    -0.00005     0.00008
  z     0.00005    -0.00004     0.00002    -0.00001     0.00012    -0.00005

 PIEZOELECTRIC TENSOR (including local field effects)  for field in x, y, z        (C/m^2)
          XX          YY          ZZ          XY          YZ          ZX
  --------------------------------------------------------------------------------
  x    -0.00001     0.00001     0.00000     0.00003    -0.00000    -0.00000
  y    -0.00005     0.00005    -0.00001     0.00000    -0.00000     0.00001
  z     0.00000    -0.00000     0.00000    -0.00000     0.00001    -0.00000
 
 BORN EFFECTIVE CHARGES (including local field effects) (in e, cummulative output)
 ---------------------------------------------------------------------------------
 ion    1
    1     0.39450     0.00000    -0.00002
    2    -0.00001     0.39423     0.00005
    3    -0.00000     0.00002     0.14373
 ion    2
    1     0.39435    -0.00001     0.00002
    2     0.00001     0.39464    -0.00005
    3     0.00001    -0.00002     0.14375
 ion    3
    1    -0.39446    -0.00000     0.00002
    2     0.00003    -0.39440    -0.00005
    3    -0.00000     0.00000    -0.14373
 ion    4
    1    -0.39439     0.00001    -0.00002
    2    -0.00002    -0.39446     0.00006
    3    -0.00000    -0.00000    -0.14375

 INTERNAL STRAIN TENSOR FOR ION    1 for displacements in x,y,z  (eV/Angst):
          X           Y           Z          XY          YZ          ZX
  --------------------------------------------------------------------------------
  x     0.00065    -0.00065    -0.00034    -7.94601    -0.00004    -6.78354
  y    -8.14752     8.14703    -0.00027     0.35084    -6.45837    -0.00012
  z    -6.16258    -6.16275    17.37907    -0.00008    -0.00084     0.00059

 INTERNAL STRAIN TENSOR FOR ION    2 for displacements in x,y,z  (eV/Angst):
          X           Y           Z          XY          YZ          ZX
  --------------------------------------------------------------------------------
  x    -0.00021     0.00004     0.00027     7.94533     0.00006     6.78166
  y     8.14857    -8.14785     0.00025    -0.35100     6.45638    -0.00002
  z     6.16157     6.16170   -17.37392     0.00005    -0.00052    -0.00013

 INTERNAL STRAIN TENSOR FOR ION    3 for displacements in x,y,z  (eV/Angst):
          X           Y           Z          XY          YZ          ZX
  --------------------------------------------------------------------------------
  x    -0.00008     0.00019     0.00003    -0.09648     0.00001    -2.88002
  y    -0.09666     0.09622     0.00035     0.00011    -2.88023    -0.00003
  z    -0.17565    -0.17560   -24.68925     0.00002     0.00018    -0.00002

 INTERNAL STRAIN TENSOR FOR ION    4 for displacements in x,y,z  (eV/Angst):
          X           Y           Z          XY          YZ          ZX
  --------------------------------------------------------------------------------
  x     0.00002     0.00013    -0.00010     0.09637    -0.00000     2.87975
  y     0.09650    -0.09652     0.00009     0.00017     2.87988    -0.00001
  z     0.17457     0.17457    24.69636     0.00001     0.00019     0.00003


--------------------------------------------------------------------------------------------------------


 
 SECOND DERIVATIVES (NOT SYMMETRIZED)
 ------------------------------------
               1X          1Y          1Z          2X          2Y          2Z          3X          3Y          3Z          4X          4Y          4Z 
  1X   -14.131905   -0.000133   -0.000263   13.184034    0.000007    0.000051    1.295636    0.000092    0.000095   -0.347765    0.000034    0.000117
  1Y    -0.000403  -14.135481   -0.000081    0.000021   13.185376    0.000444    0.000192    1.296466   -0.000171    0.000190   -0.346361   -0.000192
  1Z    -0.000265    0.000214  -22.879005    0.000030   -0.000027    6.604894    0.000105   -0.000117   15.545658    0.000129   -0.000070    0.728453
  2X    13.182047   -0.000061    0.000062  -14.126384   -0.000367   -0.000370   -0.349805    0.000238    0.000140    1.294142    0.000190    0.000168
  2Y     0.000002   13.183469    0.000398   -0.000163  -14.130169   -0.000039    0.000045   -0.348340   -0.000201    0.000116    1.295039   -0.000157
  2Z     0.000009   -0.000001    6.606385   -0.000257    0.000011  -22.879462    0.000106    0.000001    0.730711    0.000142   -0.000010   15.542366
  3X     1.306199   -0.000120   -0.000089   -0.357787    0.000020    0.000005   -1.382933    0.000073    0.000059    0.434522    0.000027    0.000025
  3Y     0.000024    1.305772    0.000269   -0.000054   -0.357930    0.000039    0.000037   -1.382351   -0.000050   -0.000007    0.434509   -0.000257
  3Z     0.000002   -0.000077   15.641772   -0.000070    0.000052    0.690687    0.000082    0.000024  -16.219756   -0.000014    0.000001   -0.112704
  4X    -0.358080   -0.000039    0.000002    1.306419    0.000001   -0.000026    0.434269   -0.000040   -0.000003   -1.382609    0.000078    0.000026
  4Y     0.000003   -0.358260    0.000055   -0.000112    1.306051    0.000321    0.000013    0.434174   -0.000182    0.000096   -1.381966   -0.000194
  4Z    -0.000010   -0.000079    0.692648    0.000014    0.000082   15.638423   -0.000008   -0.000004   -0.110850    0.000004    0.000001  -16.220220
 
 
 Eigenvectors and eigenvalues of the dynamical matrix
 ----------------------------------------------------
 
 
   1 f  =   64.289200 THz   403.940959 2PiTHz 2144.456831 cm-1   265.878857 meV
             X         Y         Z           dx          dy          dz
      0.000012  2.245276  2.842894    -0.000001    0.000002   -0.130854  
      1.944485  1.122634  2.124276    -0.000001    0.000001   -0.130923  
      0.000010  2.245271  4.343490    -0.000003    0.000006    0.694619  
      1.944482  1.122629  0.623621     0.000000    0.000008    0.695155  
 
   2 f  =   63.723327 THz   400.385475 2PiTHz 2125.581343 cm-1   263.538593 meV
             X         Y         Z           dx          dy          dz
      0.000012  2.245276  2.842894    -0.000000   -0.000000   -0.125607  
      1.944485  1.122634  2.124276     0.000001    0.000000    0.125477  
      0.000010  2.245271  4.343490    -0.000003   -0.000005    0.696136  
      1.944482  1.122629  0.623621     0.000001   -0.000000   -0.695610  
 
   3 f  =   21.662000 THz   136.106361 2PiTHz  722.566528 cm-1    89.586864 meV
             X         Y         Z           dx          dy          dz
      0.000012  2.245276  2.842894    -0.220081    0.022605   -0.000002  
      1.944485  1.122634  2.124276     0.220048   -0.022596    0.000001  
      0.000010  2.245271  4.343490     0.668240   -0.068643    0.000003  
      1.944482  1.122629  0.623621    -0.667951    0.068598    0.000000  
 
   4 f  =   21.658376 THz   136.083588 2PiTHz  722.445630 cm-1    89.571874 meV
             X         Y         Z           dx          dy          dz
      0.000012  2.245276  2.842894    -0.022625   -0.220207   -0.000016  
      1.944485  1.122634  2.124276     0.022610    0.220171    0.000016  
      0.000010  2.245271  4.343490     0.068657    0.668220    0.000001  
      1.944482  1.122629  0.623621    -0.068572   -0.667890    0.000002  
 
   5 f  =   15.492517 THz    97.342357 2PiTHz  516.774733 cm-1    64.071924 meV
             X         Y         Z           dx          dy          dz
      0.000012  2.245276  2.842894     0.130540   -0.016102    0.000019  
      1.944485  1.122634  2.124276     0.129423   -0.015856    0.000020  
      0.000010  2.245271  4.343490    -0.689342    0.084747    0.000001  
      1.944482  1.122629  0.623621    -0.690022    0.084812    0.000002  
 
   6 f  =   15.488638 THz    97.317985 2PiTHz  516.645350 cm-1    64.055883 meV
             X         Y         Z           dx          dy          dz
      0.000012  2.245276  2.842894    -0.016056   -0.130604    0.000003  
      1.944485  1.122634  2.124276    -0.015947   -0.129749    0.000007  
      0.000010  2.245271  4.343490     0.084745    0.689326   -0.000003  
      1.944482  1.122629  0.623621     0.084806    0.689965   -0.000009  
 
   7 f  =   14.580294 THz    91.610686 2PiTHz  486.346226 cm-1    60.299269 meV
             X         Y         Z           dx          dy          dz
      0.000012  2.245276  2.842894     0.009191    0.671478   -0.000008  
      1.944485  1.122634  2.124276    -0.009169   -0.671536    0.000010  
      0.000010  2.245271  4.343490     0.002986    0.221846   -0.000001  
      1.944482  1.122629  0.623621    -0.003094   -0.220804    0.000000  
 
   8 f  =   14.579098 THz    91.603172 2PiTHz  486.306336 cm-1    60.294323 meV
             X         Y         Z           dx          dy          dz
      0.000012  2.245276  2.842894     0.671495   -0.009184    0.000019  
      1.944485  1.122634  2.124276    -0.671599    0.009194   -0.000020  
      0.000010  2.245271  4.343490     0.221845   -0.003036    0.000005  
      1.944482  1.122629  0.623621    -0.220561    0.002989   -0.000004  
 
   9 f  =   11.522523 THz    72.398147 2PiTHz  384.349981 cm-1    47.653341 meV
             X         Y         Z           dx          dy          dz
      0.000012  2.245276  2.842894    -0.000020    0.000003    0.695708  
      1.944485  1.122634  2.124276     0.000020   -0.000005   -0.696038  
      0.000010  2.245271  4.343490    -0.000004    0.000019    0.125525  
      1.944482  1.122629  0.623621     0.000003   -0.000016   -0.125559  
 
  10 f/i=    0.001730 THz     0.010872 2PiTHz    0.057719 cm-1     0.007156 meV
             X         Y         Z           dx          dy          dz
      0.000012  2.245276  2.842894    -0.077331   -0.690414    0.007851  
      1.944485  1.122634  2.124276    -0.077347   -0.690535    0.007849  
      0.000010  2.245271  4.343490    -0.014594   -0.130300    0.001481  
      1.944482  1.122629  0.623621    -0.014605   -0.130366    0.001481  
 
  11 f/i=    0.003721 THz     0.023378 2PiTHz    0.124108 cm-1     0.015387 meV
             X         Y         Z           dx          dy          dz
      0.000012  2.245276  2.842894    -0.690468    0.077258   -0.007082  
      1.944485  1.122634  2.124276    -0.690589    0.077272   -0.007079  
      0.000010  2.245271  4.343490    -0.130111    0.014556   -0.001336  
      1.944482  1.122629  0.623621    -0.130172    0.014565   -0.001335  
 
  12 f/i=    0.021086 THz     0.132490 2PiTHz    0.703369 cm-1     0.087207 meV
             X         Y         Z           dx          dy          dz
      0.000012  2.245276  2.842894    -0.006166    0.008589    0.694967  
      1.944485  1.122634  2.124276    -0.006168    0.008592    0.694646  
      0.000010  2.245271  4.343490    -0.001142    0.001614    0.130918  
      1.944482  1.122629  0.623621    -0.001144    0.001616    0.130830  
 
 Eigenvectors after division by SQRT(mass)
 
 Eigenvectors and eigenvalues of the dynamical matrix
 ----------------------------------------------------
 
 
   1 f  =   64.289200 THz   403.940959 2PiTHz 2144.456831 cm-1   265.878857 meV
             X         Y         Z           dx          dy          dz
      0.000012  2.245276  2.842894    -0.000000    0.000000   -0.024692  
      1.944485  1.122634  2.124276    -0.000000    0.000000   -0.024705  
      0.000010  2.245271  4.343490    -0.000003    0.000006    0.694619  
      1.944482  1.122629  0.623621     0.000000    0.000008    0.695155  
 
   2 f  =   63.723327 THz   400.385475 2PiTHz 2125.581343 cm-1   263.538593 meV
             X         Y         Z           dx          dy          dz
      0.000012  2.245276  2.842894    -0.000000   -0.000000   -0.023701  
      1.944485  1.122634  2.124276     0.000000    0.000000    0.023677  
      0.000010  2.245271  4.343490    -0.000003   -0.000005    0.696136  
      1.944482  1.122629  0.623621     0.000001   -0.000000   -0.695610  
 
   3 f  =   21.662000 THz   136.106361 2PiTHz  722.566528 cm-1    89.586864 meV
             X         Y         Z           dx          dy          dz
      0.000012  2.245276  2.842894    -0.041529    0.004265   -0.000000  
      1.944485  1.122634  2.124276     0.041522   -0.004264    0.000000  
      0.000010  2.245271  4.343490     0.668240   -0.068643    0.000003  
      1.944482  1.122629  0.623621    -0.667951    0.068598    0.000000  
 
   4 f  =   21.658376 THz   136.083588 2PiTHz  722.445630 cm-1    89.571874 meV
             X         Y         Z           dx          dy          dz
      0.000012  2.245276  2.842894    -0.004269   -0.041552   -0.000003  
      1.944485  1.122634  2.124276     0.004266    0.041545    0.000003  
      0.000010  2.245271  4.343490     0.068657    0.668220    0.000001  
      1.944482  1.122629  0.623621    -0.068572   -0.667890    0.000002  
 
   5 f  =   15.492517 THz    97.342357 2PiTHz  516.774733 cm-1    64.071924 meV
             X         Y         Z           dx          dy          dz
      0.000012  2.245276  2.842894     0.024632   -0.003038    0.000004  
      1.944485  1.122634  2.124276     0.024422   -0.002992    0.000004  
      0.000010  2.245271  4.343490    -0.689342    0.084747    0.000001  
      1.944482  1.122629  0.623621    -0.690022    0.084812    0.000002  
 
   6 f  =   15.488638 THz    97.317985 2PiTHz  516.645350 cm-1    64.055883 meV
             X         Y         Z           dx          dy          dz
      0.000012  2.245276  2.842894    -0.003030   -0.024644    0.000001  
      1.944485  1.122634  2.124276    -0.003009   -0.024483    0.000001  
      0.000010  2.245271  4.343490     0.084745    0.689326   -0.000003  
      1.944482  1.122629  0.623621     0.084806    0.689965   -0.000009  
 
   7 f  =   14.580294 THz    91.610686 2PiTHz  486.346226 cm-1    60.299269 meV
             X         Y         Z           dx          dy          dz
      0.000012  2.245276  2.842894     0.001734    0.126705   -0.000002  
      1.944485  1.122634  2.124276    -0.001730   -0.126716    0.000002  
      0.000010  2.245271  4.343490     0.002986    0.221846   -0.000001  
      1.944482  1.122629  0.623621    -0.003094   -0.220804    0.000000  
 
   8 f  =   14.579098 THz    91.603172 2PiTHz  486.306336 cm-1    60.294323 meV
             X         Y         Z           dx          dy          dz
      0.000012  2.245276  2.842894     0.126708   -0.001733    0.000004  
      1.944485  1.122634  2.124276    -0.126728    0.001735   -0.000004  
      0.000010  2.245271  4.343490     0.221845   -0.003036    0.000005  
      1.944482  1.122629  0.623621    -0.220561    0.002989   -0.000004  
 
   9 f  =   11.522523 THz    72.398147 2PiTHz  384.349981 cm-1    47.653341 meV
             X         Y         Z           dx          dy          dz
      0.000012  2.245276  2.842894    -0.000004    0.000001    0.131277  
      1.944485  1.122634  2.124276     0.000004   -0.000001   -0.131340  
      0.000010  2.245271  4.343490    -0.000004    0.000019    0.125525  
      1.944482  1.122629  0.623621     0.000003   -0.000016   -0.125559  
 
  10 f/i=    0.001730 THz     0.010872 2PiTHz    0.057719 cm-1     0.007156 meV
             X         Y         Z           dx          dy          dz
      0.000012  2.245276  2.842894    -0.014592   -0.130278    0.001482  
      1.944485  1.122634  2.124276    -0.014595   -0.130301    0.001481  
      0.000010  2.245271  4.343490    -0.014594   -0.130300    0.001481  
      1.944482  1.122629  0.623621    -0.014605   -0.130366    0.001481  
 
  11 f/i=    0.003721 THz     0.023378 2PiTHz    0.124108 cm-1     0.015387 meV
             X         Y         Z           dx          dy          dz
      0.000012  2.245276  2.842894    -0.130289    0.014578   -0.001336  
      1.944485  1.122634  2.124276    -0.130311    0.014581   -0.001336  
      0.000010  2.245271  4.343490    -0.130111    0.014556   -0.001336  
      1.944482  1.122629  0.623621    -0.130172    0.014565   -0.001335  
 
  12 f/i=    0.021086 THz     0.132490 2PiTHz    0.703369 cm-1     0.087207 meV
             X         Y         Z           dx          dy          dz
      0.000012  2.245276  2.842894    -0.001164    0.001621    0.131137  
      1.944485  1.122634  2.124276    -0.001164    0.001621    0.131077  
      0.000010  2.245271  4.343490    -0.001142    0.001614    0.130918  
      1.944482  1.122629  0.623621    -0.001144    0.001616    0.130830  
 


--------------------------------------------------------------------------------------------------------




 MACROSCOPIC STATIC DIELECTRIC TENSOR IONIC CONTRIBUTION
 ------------------------------------------------------
           0.239717    -0.000028     0.000000
          -0.000028     0.239504    -0.000000
           0.000000    -0.000000     0.001850
 ------------------------------------------------------


 ELASTIC MODULI CONTR FROM IONIC RELAXATION (kBar)
 Direction    XX          YY          ZZ          XY          YZ          ZX
 --------------------------------------------------------------------------------
 XX         -66.8928      1.1574    -31.6989      1.4488    -39.4184      0.0026
 YY           1.1574    -66.8871    -31.6969     -1.4480     39.4061      0.0017
 ZZ         -31.6989    -31.6969   -513.4389     -0.0011     -0.0021     -0.0003
 XY           1.4488     -1.4480     -0.0011    -32.4454      1.5940    -39.8054
 YZ         -39.4184     39.4061     -0.0021      1.5940   -100.2812     -0.0035
 ZX           0.0026      0.0017     -0.0003    -39.8054     -0.0035   -103.2668
 --------------------------------------------------------------------------------


 PIEZOELECTRIC TENSOR IONIC CONTR  for field in x, y, z        (C/m^2)
          XX          YY          ZZ          XY          YZ          ZX
  --------------------------------------------------------------------------------
  x     0.00001    -0.00001    -0.00000     0.00002    -0.00000     0.00002
  y     0.00005    -0.00004     0.00001    -0.00001     0.00001    -0.00001
  z    -0.00000     0.00000    -0.00000     0.00000    -0.00000     0.00000


--------------------------------------------------------------------------------------------------------


 writing wavefunctions
     LOOP+:  cpu time  860.4896: real time  864.1866
    4ORBIT:  cpu time    0.0000: real time    0.0000
 BZINTS: Fermi energy: -3.317800; 10.000000 electrons
         Band energy: -78.394716;  BLOECHL correction:  0.000000

 total amount of memory used by VASP MPI-rank0   461741. kBytes
=======================================================================

   base      :      30000. kBytes
   nonl-proj :     238065. kBytes
   fftplans  :      17802. kBytes
   grid      :      26836. kBytes
   one-center:         12. kBytes
   wavefun   :     149026. kBytes
 
  
  
 General timing and accounting informations for this job:
 ========================================================
  
                  Total CPU time used (sec):      864.314
                            User time (sec):      840.570
                          System time (sec):       23.744
                         Elapsed time (sec):      869.554
  
                   Maximum memory used (kb):     1279044.
                   Average memory used (kb):           0.
  
                          Minor page faults:      2276495
                          Major page faults:           59
                 Voluntary context switches:         2308
