 vasp.5.4.4.18Apr17-6-g9f103f2a35 (build Aug 06 2018 12:32:45) complex          
  
 executed on                Euler date 2021.10.05  16:07:55
 running on   16 total cores
 distrk:  each k-point on   16 cores,    1 groups
 distr:  one band on NCORES_PER_BAND=   8 cores,    2 groups


--------------------------------------------------------------------------------------------------------


 INCAR:
 POTCAR:    PAW_PBE Si 05Jan2001                  
 POTCAR:    PAW_PBE H 15Jun2001                   
 POTCAR:    PAW_PBE Si 05Jan2001                  
   VRHFIN =Si: s2p2                                                             
   LEXCH  = PE                                                                  
   EATOM  =   103.0669 eV,    7.5752 Ry                                         
                                                                                
   TITEL  = PAW_PBE Si 05Jan2001                                                
   LULTRA =        F    use ultrasoft PP ?                                      
   IUNSCR =        1    unscreen: 0-lin 1-nonlin 2-no                           
   RPACOR =    1.500    partial core radius                                     
   POMASS =   28.085; ZVAL   =    4.000    mass and valenz                      
   RCORE  =    1.900    outmost cutoff radius                                   
   RWIGS  =    2.480; RWIGS  =    1.312    wigner-seitz radius (au A)           
   ENMAX  =  245.345; ENMIN  =  184.009 eV                                      
   ICORE  =        2    local potential                                         
   LCOR   =        T    correct aug charges                                     
   LPAW   =        T    paw PP                                                  
   EAUG   =  322.069                                                            
   DEXC   =    0.000                                                            
   RMAX   =    1.950    core radius for proj-oper                               
   RAUG   =    1.300    factor for augmentation sphere                          
   RDEP   =    1.993    radius for radial grids                                 
   RDEPT  =    1.837    core radius for aug-charge                              
                                                                                
   Atomic configuration                                                         
    6 entries                                                                   
     n  l   j            E        occ.                                          
     1  0  0.50     -1785.8828   2.0000                                         
     2  0  0.50      -139.4969   2.0000                                         
     2  1  1.50       -95.5546   6.0000                                         
     3  0  0.50       -10.8127   2.0000                                         
     3  1  0.50        -4.0811   2.0000                                         
     3  2  1.50        -4.0817   0.0000                                         
   Description                                                                  
     l       E           TYP  RCUT    TYP  RCUT                                 
     0    -10.8127223     23  1.900                                             
     0     -7.6451159     23  1.900                                             
     1     -4.0811372     23  1.900                                             
     1      2.4879257     23  1.900                                             
     2     -4.0817478      7  1.900                                             
  local pseudopotential read in
  partial core-charges read in
  partial kinetic energy density read in
  atomic valenz-charges read in
  non local Contribution for L=           0  read in
    real space projection operators read in
  non local Contribution for L=           0  read in
    real space projection operators read in
  non local Contribution for L=           1  read in
    real space projection operators read in
  non local Contribution for L=           1  read in
    real space projection operators read in
    PAW grid and wavefunctions read in
 
   number of l-projection  operators is LMAX  =           4
   number of lm-projection operators is LMMAX =           8
 
 POTCAR:    PAW_PBE H 15Jun2001                   
   VRHFIN =H: ultrasoft test                                                    
   LEXCH  = PE                                                                  
   EATOM  =    12.4884 eV,    0.9179 Ry                                         
                                                                                
   TITEL  = PAW_PBE H 15Jun2001                                                 
   LULTRA =        F    use ultrasoft PP ?                                      
   IUNSCR =        0    unscreen: 0-lin 1-nonlin 2-no                           
   RPACOR =    0.000    partial core radius                                     
   POMASS =    1.000; ZVAL   =    1.000    mass and valenz                      
   RCORE  =    1.100    outmost cutoff radius                                   
   RWIGS  =    0.700; RWIGS  =    0.370    wigner-seitz radius (au A)           
   ENMAX  =  250.000; ENMIN  =  200.000 eV                                      
   RCLOC  =    0.701    cutoff for local pot                                    
   LCOR   =        T    correct aug charges                                     
   LPAW   =        T    paw PP                                                  
   EAUG   =  400.000                                                            
   RMAX   =    1.123    core radius for proj-oper                               
   RAUG   =    1.200    factor for augmentation sphere                          
   RDEP   =    1.112    radius for radial grids                                 
   RDEPT  =    0.926    core radius for aug-charge                              
                                                                                
   Atomic configuration                                                         
    2 entries                                                                   
     n  l   j            E        occ.                                          
     1  0  0.50        -6.4927   1.0000                                         
     2  1  0.50        -3.4015   0.0000                                         
   Description                                                                  
     l       E           TYP  RCUT    TYP  RCUT                                 
     0     -6.4927494     23  1.100                                             
     0      6.8029130     23  1.100                                             
     1     -4.0817478     23  1.100                                             
  local pseudopotential read in
  atomic valenz-charges read in
  non local Contribution for L=           0  read in
    real space projection operators read in
  non local Contribution for L=           0  read in
    real space projection operators read in
  non local Contribution for L=           1  read in
    real space projection operators read in
    PAW grid and wavefunctions read in
 
   number of l-projection  operators is LMAX  =           3
   number of lm-projection operators is LMMAX =           5
 
  PAW_PBE Si 05Jan2001                  :
 energy of atom  1       EATOM= -103.0669
 kinetic energy error for atom=    0.0004 (will be added to EATOM!!)
  PAW_PBE H 15Jun2001                   :
 energy of atom  2       EATOM=  -12.4884
 kinetic energy error for atom=    0.0008 (will be added to EATOM!!)
 
 
 POSCAR: Si  H                                   
  positions in direct lattice
  velocities in cartesian coordinates
 exchange correlation table for  LEXCH =        8
   RHO(1)=    0.500       N(1)  =     2000
   RHO(2)=  100.500       N(2)  =     4000
 


--------------------------------------------------------------------------------------------------------


 ion  position               nearest neighbor table
   1  0.333  0.667  0.479-   3 1.50   2 2.36   2 2.36   2 2.36
   2  0.667  0.333  0.358-   4 1.50   1 2.36   1 2.36   1 2.36
   3  0.333  0.667  0.732-   1 1.50
   4  0.667  0.333  0.105-   2 1.50
 
  LATTYP: Found a simple monoclinic cell.
 ALAT       =     3.8889455746
 B/A-ratio  =     1.5251184433
 C/A-ratio  =     2.6457513333
 COS(beta)  =    -0.9449111752
  
  Lattice vectors:
  
 A1 = (  -1.9444727900,  -3.3679256600,   0.0000000000)
 A2 = (  -0.0000954800,   0.0000551200,  -5.9311026200)
 A3 = (   7.7778913700,   6.7358512000,   0.0000190600)


Analysis of symmetry for initial positions (statically):
=====================================================================
 Subroutine PRICEL returns:
 Original cell was already a primitive cell.
 

 Routine SETGRP: Setting up the symmetry group for a 
 simple monoclinic supercell.


 Subroutine GETGRP returns: Found  2 space group operations
 (whereof  1 operations were pure point group operations)
 out of a pool of  4 trial point group operations.


The static configuration has the point symmetry C_1 .
 The point group associated with its full space group is S_2 .


Analysis of symmetry for dynamics (positions and initial velocities):
=====================================================================
 Subroutine PRICEL returns:
 Original cell was already a primitive cell.
 

 Routine SETGRP: Setting up the symmetry group for a 
 simple monoclinic supercell.


 Subroutine GETGRP returns: Found  2 space group operations
 (whereof  1 operations were pure point group operations)
 out of a pool of  4 trial point group operations.


The dynamic configuration has the point symmetry C_1 .
 The point group associated with its full space group is S_2 .


 Subroutine INISYM returns: Found  2 space group operations
 (whereof  1 operations are pure point group operations),
 and found     1 'primitive' translations

 
 
 KPOINTS: Automatic                               

Automatic generation of k-mesh.
Space group operators:
 irot       det(A)        alpha          n_x          n_y          n_z        tau_x        tau_y        tau_z
    1     1.000000     0.000001     1.000000     0.000000     0.000000     0.000000     0.000000     0.000000
    2    -1.000000     0.000001     1.000000     0.000000     0.000000     1.999990     1.000009    -0.162522
 
 Subroutine IBZKPT returns following result:
 ===========================================
 
 Found    254 irreducible k-points:
 
 Following reciprocal coordinates:
            Coordinates               Weight
  0.000000  0.000000  0.000000      1.000000
  0.076923  0.000000 -0.000000      2.000000
  0.153846  0.000000 -0.000000      2.000000
  0.230769  0.000000 -0.000000      2.000000
  0.307692  0.000000 -0.000000      2.000000
  0.384615  0.000000 -0.000000      2.000000
  0.461538  0.000000 -0.000000      2.000000
  0.000000  0.076923  0.000000      2.000000
  0.076923  0.076923 -0.000000      2.000000
  0.153846  0.076923 -0.000000      2.000000
  0.230769  0.076923 -0.000000      2.000000
  0.307692  0.076923 -0.000000      2.000000
  0.384615  0.076923 -0.000000      2.000000
  0.461538  0.076923 -0.000000      2.000000
 -0.461538  0.076923  0.000000      2.000000
 -0.384615  0.076923  0.000000      2.000000
 -0.307692  0.076923  0.000000      2.000000
 -0.230769  0.076923  0.000000      2.000000
 -0.153846  0.076923  0.000000      2.000000
 -0.076923  0.076923  0.000000      2.000000
  0.000000  0.153846  0.000000      2.000000
  0.076923  0.153846  0.000000      2.000000
  0.153846  0.153846 -0.000000      2.000000
  0.230769  0.153846 -0.000000      2.000000
  0.307692  0.153846 -0.000000      2.000000
  0.384615  0.153846 -0.000000      2.000000
  0.461538  0.153846 -0.000000      2.000000
 -0.461538  0.153846  0.000000      2.000000
 -0.384615  0.153846  0.000000      2.000000
 -0.307692  0.153846  0.000000      2.000000
 -0.230769  0.153846  0.000000      2.000000
 -0.153846  0.153846  0.000000      2.000000
 -0.076923  0.153846  0.000000      2.000000
  0.000000  0.230769  0.000000      2.000000
  0.076923  0.230769  0.000000      2.000000
  0.153846  0.230769  0.000000      2.000000
  0.230769  0.230769 -0.000000      2.000000
  0.307692  0.230769  0.000000      2.000000
  0.384615  0.230769 -0.000000      2.000000
  0.461538  0.230769 -0.000000      2.000000
 -0.461538  0.230769  0.000000      2.000000
 -0.384615  0.230769  0.000000      2.000000
 -0.307692  0.230769  0.000000      2.000000
 -0.230769  0.230769  0.000000      2.000000
 -0.153846  0.230769  0.000000      2.000000
 -0.076923  0.230769  0.000000      2.000000
  0.000000  0.307692  0.000000      2.000000
  0.076923  0.307692  0.000000      2.000000
  0.153846  0.307692 -0.000000      2.000000
  0.230769  0.307692 -0.000000      2.000000
  0.307692  0.307692 -0.000000      2.000000
  0.384615  0.307692 -0.000000      2.000000
  0.461538  0.307692 -0.000000      2.000000
 -0.461538  0.307692  0.000000      2.000000
 -0.384615  0.307692  0.000000      2.000000
 -0.307692  0.307692  0.000000      2.000000
 -0.230769  0.307692  0.000000      2.000000
 -0.153846  0.307692  0.000000      2.000000
 -0.076923  0.307692  0.000000      2.000000
  0.000000  0.384615  0.000000      2.000000
  0.076923  0.384615  0.000000      2.000000
  0.153846  0.384615  0.000000      2.000000
  0.230769  0.384615 -0.000000      2.000000
  0.307692  0.384615 -0.000000      2.000000
  0.384615  0.384615 -0.000000      2.000000
  0.461538  0.384615 -0.000000      2.000000
 -0.461538  0.384615  0.000000      2.000000
 -0.384615  0.384615  0.000000      2.000000
 -0.307692  0.384615  0.000000      2.000000
 -0.230769  0.384615  0.000000      2.000000
 -0.153846  0.384615  0.000000      2.000000
 -0.076923  0.384615  0.000000      2.000000
  0.000000  0.461538  0.000000      2.000000
  0.076923  0.461538  0.000000      2.000000
  0.153846  0.461538  0.000000      2.000000
  0.230769  0.461538  0.000000      2.000000
  0.307692  0.461538  0.000000      2.000000
  0.384615  0.461538 -0.000000      2.000000
  0.461538  0.461538 -0.000000      2.000000
 -0.461538  0.461538  0.000000      2.000000
 -0.384615  0.461538  0.000000      2.000000
 -0.307692  0.461538  0.000000      2.000000
 -0.230769  0.461538  0.000000      2.000000
 -0.153846  0.461538  0.000000      2.000000
 -0.076923  0.461538  0.000000      2.000000
  0.000000 -0.000000  0.333333      2.000000
  0.076923  0.000000  0.333333      2.000000
  0.153846  0.000000  0.333333      2.000000
  0.230769  0.000000  0.333333      2.000000
  0.307692  0.000000  0.333333      2.000000
  0.384615  0.000000  0.333333      2.000000
  0.461538  0.000000  0.333333      2.000000
 -0.461538 -0.000000  0.333333      2.000000
 -0.384615 -0.000000  0.333333      2.000000
 -0.307692 -0.000000  0.333333      2.000000
 -0.230769 -0.000000  0.333333      2.000000
 -0.153846 -0.000000  0.333333      2.000000
 -0.076923 -0.000000  0.333333      2.000000
  0.000000  0.076923  0.333333      2.000000
  0.076923  0.076923  0.333333      2.000000
  0.153846  0.076923  0.333333      2.000000
  0.230769  0.076923  0.333333      2.000000
  0.307692  0.076923  0.333333      2.000000
  0.384615  0.076923  0.333333      2.000000
  0.461538  0.076923  0.333333      2.000000
 -0.461538  0.076923  0.333333      2.000000
 -0.384615  0.076923  0.333333      2.000000
 -0.307692  0.076923  0.333333      2.000000
 -0.230769  0.076923  0.333333      2.000000
 -0.153846  0.076923  0.333333      2.000000
 -0.076923  0.076923  0.333333      2.000000
  0.000000  0.153846  0.333333      2.000000
  0.076923  0.153846  0.333333      2.000000
  0.153846  0.153846  0.333333      2.000000
  0.230769  0.153846  0.333333      2.000000
  0.307692  0.153846  0.333333      2.000000
  0.384615  0.153846  0.333333      2.000000
  0.461538  0.153846  0.333333      2.000000
 -0.461538  0.153846  0.333333      2.000000
 -0.384615  0.153846  0.333333      2.000000
 -0.307692  0.153846  0.333333      2.000000
 -0.230769  0.153846  0.333333      2.000000
 -0.153846  0.153846  0.333333      2.000000
 -0.076923  0.153846  0.333333      2.000000
  0.000000  0.230769  0.333333      2.000000
  0.076923  0.230769  0.333333      2.000000
  0.153846  0.230769  0.333333      2.000000
  0.230769  0.230769  0.333333      2.000000
  0.307692  0.230769  0.333333      2.000000
  0.384615  0.230769  0.333333      2.000000
  0.461538  0.230769  0.333333      2.000000
 -0.461538  0.230769  0.333333      2.000000
 -0.384615  0.230769  0.333333      2.000000
 -0.307692  0.230769  0.333333      2.000000
 -0.230769  0.230769  0.333333      2.000000
 -0.153846  0.230769  0.333333      2.000000
 -0.076923  0.230769  0.333333      2.000000
  0.000000  0.307692  0.333333      2.000000
  0.076923  0.307692  0.333333      2.000000
  0.153846  0.307692  0.333333      2.000000
  0.230769  0.307692  0.333333      2.000000
  0.307692  0.307692  0.333333      2.000000
  0.384615  0.307692  0.333333      2.000000
  0.461538  0.307692  0.333333      2.000000
 -0.461538  0.307692  0.333333      2.000000
 -0.384615  0.307692  0.333333      2.000000
 -0.307692  0.307692  0.333333      2.000000
 -0.230769  0.307692  0.333333      2.000000
 -0.153846  0.307692  0.333333      2.000000
 -0.076923  0.307692  0.333333      2.000000
  0.000000  0.384615  0.333333      2.000000
  0.076923  0.384615  0.333333      2.000000
  0.153846  0.384615  0.333333      2.000000
  0.230769  0.384615  0.333333      2.000000
  0.307692  0.384615  0.333333      2.000000
  0.384615  0.384615  0.333333      2.000000
  0.461538  0.384615  0.333333      2.000000
 -0.461538  0.384615  0.333333      2.000000
 -0.384615  0.384615  0.333333      2.000000
 -0.307692  0.384615  0.333333      2.000000
 -0.230769  0.384615  0.333333      2.000000
 -0.153846  0.384615  0.333333      2.000000
 -0.076923  0.384615  0.333333      2.000000
  0.000000  0.461538  0.333333      2.000000
  0.076923  0.461538  0.333333      2.000000
  0.153846  0.461538  0.333333      2.000000
  0.230769  0.461538  0.333333      2.000000
  0.307692  0.461538  0.333333      2.000000
  0.384615  0.461538  0.333333      2.000000
  0.461538  0.461538  0.333333      2.000000
 -0.461538  0.461538  0.333333      2.000000
 -0.384615  0.461538  0.333333      2.000000
 -0.307692  0.461538  0.333333      2.000000
 -0.230769  0.461538  0.333333      2.000000
 -0.153846  0.461538  0.333333      2.000000
 -0.076923  0.461538  0.333333      2.000000
  0.000000 -0.461538  0.333333      2.000000
  0.076923 -0.461538  0.333333      2.000000
  0.153846 -0.461538  0.333333      2.000000
  0.230769 -0.461538  0.333333      2.000000
  0.307692 -0.461538  0.333333      2.000000
  0.384615 -0.461538  0.333333      2.000000
  0.461538 -0.461538  0.333333      2.000000
 -0.461538 -0.461538  0.333333      2.000000
 -0.384615 -0.461538  0.333333      2.000000
 -0.307692 -0.461538  0.333333      2.000000
 -0.230769 -0.461538  0.333333      2.000000
 -0.153846 -0.461538  0.333333      2.000000
 -0.076923 -0.461538  0.333333      2.000000
 -0.000000 -0.384615  0.333333      2.000000
  0.076923 -0.384615  0.333333      2.000000
  0.153846 -0.384615  0.333333      2.000000
  0.230769 -0.384615  0.333333      2.000000
  0.307692 -0.384615  0.333333      2.000000
  0.384615 -0.384615  0.333333      2.000000
  0.461538 -0.384615  0.333333      2.000000
 -0.461538 -0.384615  0.333333      2.000000
 -0.384615 -0.384615  0.333333      2.000000
 -0.307692 -0.384615  0.333333      2.000000
 -0.230769 -0.384615  0.333333      2.000000
 -0.153846 -0.384615  0.333333      2.000000
 -0.076923 -0.384615  0.333333      2.000000
  0.000000 -0.307692  0.333333      2.000000
  0.076923 -0.307692  0.333333      2.000000
  0.153846 -0.307692  0.333333      2.000000
  0.230769 -0.307692  0.333333      2.000000
  0.307692 -0.307692  0.333333      2.000000
  0.384615 -0.307692  0.333333      2.000000
  0.461538 -0.307692  0.333333      2.000000
 -0.461538 -0.307692  0.333333      2.000000
 -0.384615 -0.307692  0.333333      2.000000
 -0.307692 -0.307692  0.333333      2.000000
 -0.230769 -0.307692  0.333333      2.000000
 -0.153846 -0.307692  0.333333      2.000000
 -0.076923 -0.307692  0.333333      2.000000
  0.000000 -0.230769  0.333333      2.000000
  0.076923 -0.230769  0.333333      2.000000
  0.153846 -0.230769  0.333333      2.000000
  0.230769 -0.230769  0.333333      2.000000
  0.307692 -0.230769  0.333333      2.000000
  0.384615 -0.230769  0.333333      2.000000
  0.461538 -0.230769  0.333333      2.000000
 -0.461538 -0.230769  0.333333      2.000000
 -0.384615 -0.230769  0.333333      2.000000
 -0.307692 -0.230769  0.333333      2.000000
 -0.230769 -0.230769  0.333333      2.000000
 -0.153846 -0.230769  0.333333      2.000000
 -0.076923 -0.230769  0.333333      2.000000
  0.000000 -0.153846  0.333333      2.000000
  0.076923 -0.153846  0.333333      2.000000
  0.153846 -0.153846  0.333333      2.000000
  0.230769 -0.153846  0.333333      2.000000
  0.307692 -0.153846  0.333333      2.000000
  0.384615 -0.153846  0.333333      2.000000
  0.461538 -0.153846  0.333333      2.000000
 -0.461538 -0.153846  0.333333      2.000000
 -0.384615 -0.153846  0.333333      2.000000
 -0.307692 -0.153846  0.333333      2.000000
 -0.230769 -0.153846  0.333333      2.000000
 -0.153846 -0.153846  0.333333      2.000000
 -0.076923 -0.153846  0.333333      2.000000
  0.000000 -0.076923  0.333333      2.000000
  0.076923 -0.076923  0.333333      2.000000
  0.153846 -0.076923  0.333333      2.000000
  0.230769 -0.076923  0.333333      2.000000
  0.307692 -0.076923  0.333333      2.000000
  0.384615 -0.076923  0.333333      2.000000
  0.461538 -0.076923  0.333333      2.000000
 -0.461538 -0.076923  0.333333      2.000000
 -0.384615 -0.076923  0.333333      2.000000
 -0.307692 -0.076923  0.333333      2.000000
 -0.230769 -0.076923  0.333333      2.000000
 -0.153846 -0.076923  0.333333      2.000000
 -0.076923 -0.076923  0.333333      2.000000
 
 Following cartesian coordinates:
            Coordinates               Weight
  0.000000  0.000000  0.000000      1.000000
  0.019780  0.011420 -0.000000      2.000000
  0.039560  0.022840 -0.000000      2.000000
  0.059340  0.034260 -0.000001      2.000000
  0.079120  0.045680 -0.000001      2.000000
  0.098900  0.057100 -0.000001      2.000000
  0.118680  0.068520 -0.000001      2.000000
  0.000000  0.022840  0.000000      2.000000
  0.019780  0.034260 -0.000000      2.000000
  0.039560  0.045680 -0.000000      2.000000
  0.059340  0.057100 -0.000000      2.000000
  0.079120  0.068520 -0.000001      2.000000
  0.098900  0.079940 -0.000001      2.000000
  0.118680  0.091360 -0.000001      2.000000
 -0.118680 -0.045680  0.000001      2.000000
 -0.098900 -0.034260  0.000001      2.000000
 -0.079120 -0.022840  0.000001      2.000000
 -0.059340 -0.011420  0.000001      2.000000
 -0.039560 -0.000000  0.000001      2.000000
 -0.019780  0.011420  0.000000      2.000000
  0.000000  0.045680  0.000000      2.000000
  0.019780  0.057100  0.000000      2.000000
  0.039560  0.068520 -0.000000      2.000000
  0.059340  0.079940 -0.000000      2.000000
  0.079120  0.091360 -0.000000      2.000000
  0.098900  0.102780 -0.000001      2.000000
  0.118680  0.114199 -0.000001      2.000000
 -0.118680 -0.022840  0.000002      2.000000
 -0.098900 -0.011420  0.000001      2.000000
 -0.079120 -0.000000  0.000001      2.000000
 -0.059340  0.011420  0.000001      2.000000
 -0.039560  0.022840  0.000001      2.000000
 -0.019780  0.034260  0.000001      2.000000
  0.000000  0.068520  0.000001      2.000000
  0.019780  0.079940  0.000000      2.000000
  0.039560  0.091360  0.000000      2.000000
  0.059340  0.102780 -0.000000      2.000000
  0.079120  0.114199 -0.000000      2.000000
  0.098900  0.125619 -0.000000      2.000000
  0.118680  0.137039 -0.000001      2.000000
 -0.118680 -0.000000  0.000002      2.000000
 -0.098900  0.011420  0.000002      2.000000
 -0.079120  0.022840  0.000001      2.000000
 -0.059340  0.034260  0.000001      2.000000
 -0.039560  0.045680  0.000001      2.000000
 -0.019780  0.057100  0.000001      2.000000
  0.000000  0.091360  0.000001      2.000000
  0.019780  0.102780  0.000001      2.000000
  0.039560  0.114199  0.000000      2.000000
  0.059340  0.125619  0.000000      2.000000
  0.079120  0.137039 -0.000000      2.000000
  0.098900  0.148459 -0.000000      2.000000
  0.118680  0.159879 -0.000000      2.000000
 -0.118680  0.022840  0.000002      2.000000
 -0.098900  0.034260  0.000002      2.000000
 -0.079120  0.045680  0.000002      2.000000
 -0.059340  0.057100  0.000001      2.000000
 -0.039560  0.068520  0.000001      2.000000
 -0.019780  0.079940  0.000001      2.000000
  0.000000  0.114199  0.000001      2.000000
  0.019780  0.125619  0.000001      2.000000
  0.039560  0.137039  0.000001      2.000000
  0.059340  0.148459  0.000000      2.000000
  0.079120  0.159879  0.000000      2.000000
  0.098900  0.171299 -0.000000      2.000000
  0.118680  0.182719 -0.000000      2.000000
 -0.118680  0.045680  0.000002      2.000000
 -0.098900  0.057100  0.000002      2.000000
 -0.079120  0.068520  0.000002      2.000000
 -0.059340  0.079940  0.000002      2.000000
 -0.039560  0.091360  0.000001      2.000000
 -0.019780  0.102780  0.000001      2.000000
  0.000000  0.137039  0.000001      2.000000
  0.019780  0.148459  0.000001      2.000000
  0.039560  0.159879  0.000001      2.000000
  0.059340  0.171299  0.000001      2.000000
  0.079120  0.182719  0.000000      2.000000
  0.098900  0.194139  0.000000      2.000000
  0.118680  0.205559 -0.000000      2.000000
 -0.118680  0.068520  0.000003      2.000000
 -0.098900  0.079940  0.000002      2.000000
 -0.079120  0.091360  0.000002      2.000000
 -0.059340  0.102780  0.000002      2.000000
 -0.039560  0.114199  0.000002      2.000000
 -0.019780  0.125619  0.000001      2.000000
 -0.000000  0.000000  0.056201      2.000000
  0.019780  0.011420  0.056201      2.000000
  0.039560  0.022840  0.056200      2.000000
  0.059340  0.034260  0.056200      2.000000
  0.079119  0.045680  0.056200      2.000000
  0.098899  0.057100  0.056200      2.000000
  0.118679  0.068520  0.056200      2.000000
 -0.118680 -0.068520  0.056202      2.000000
 -0.098900 -0.057100  0.056202      2.000000
 -0.079120 -0.045680  0.056202      2.000000
 -0.059340 -0.034260  0.056202      2.000000
 -0.039560 -0.022840  0.056201      2.000000
 -0.019780 -0.011420  0.056201      2.000000
 -0.000000  0.022840  0.056201      2.000000
  0.019780  0.034260  0.056201      2.000000
  0.039560  0.045680  0.056201      2.000000
  0.059340  0.057100  0.056200      2.000000
  0.079119  0.068520  0.056200      2.000000
  0.098899  0.079940  0.056200      2.000000
  0.118679  0.091360  0.056200      2.000000
 -0.118680 -0.045680  0.056202      2.000000
 -0.098900 -0.034260  0.056202      2.000000
 -0.079120 -0.022840  0.056202      2.000000
 -0.059340 -0.011420  0.056202      2.000000
 -0.039560  0.000000  0.056202      2.000000
 -0.019780  0.011420  0.056201      2.000000
 -0.000000  0.045680  0.056201      2.000000
  0.019780  0.057100  0.056201      2.000000
  0.039560  0.068520  0.056201      2.000000
  0.059340  0.079940  0.056201      2.000000
  0.079119  0.091360  0.056200      2.000000
  0.098899  0.102780  0.056200      2.000000
  0.118679  0.114200  0.056200      2.000000
 -0.118680 -0.022840  0.056203      2.000000
 -0.098900 -0.011420  0.056202      2.000000
 -0.079120  0.000000  0.056202      2.000000
 -0.059340  0.011420  0.056202      2.000000
 -0.039560  0.022840  0.056202      2.000000
 -0.019780  0.034260  0.056202      2.000000
 -0.000000  0.068520  0.056202      2.000000
  0.019780  0.079940  0.056201      2.000000
  0.039560  0.091360  0.056201      2.000000
  0.059340  0.102780  0.056201      2.000000
  0.079119  0.114200  0.056201      2.000000
  0.098899  0.125620  0.056200      2.000000
  0.118679  0.137040  0.056200      2.000000
 -0.118680  0.000000  0.056203      2.000000
 -0.098900  0.011420  0.056203      2.000000
 -0.079120  0.022840  0.056202      2.000000
 -0.059340  0.034260  0.056202      2.000000
 -0.039560  0.045680  0.056202      2.000000
 -0.019780  0.057100  0.056202      2.000000
 -0.000000  0.091360  0.056202      2.000000
  0.019780  0.102780  0.056202      2.000000
  0.039560  0.114200  0.056201      2.000000
  0.059340  0.125620  0.056201      2.000000
  0.079119  0.137040  0.056201      2.000000
  0.098899  0.148459  0.056201      2.000000
  0.118679  0.159879  0.056200      2.000000
 -0.118680  0.022840  0.056203      2.000000
 -0.098900  0.034260  0.056203      2.000000
 -0.079120  0.045680  0.056203      2.000000
 -0.059340  0.057100  0.056202      2.000000
 -0.039560  0.068520  0.056202      2.000000
 -0.019780  0.079940  0.056202      2.000000
 -0.000000  0.114200  0.056202      2.000000
  0.019780  0.125620  0.056202      2.000000
  0.039560  0.137040  0.056202      2.000000
  0.059340  0.148459  0.056201      2.000000
  0.079119  0.159879  0.056201      2.000000
  0.098899  0.171299  0.056201      2.000000
  0.118679  0.182719  0.056201      2.000000
 -0.118680  0.045680  0.056203      2.000000
 -0.098900  0.057100  0.056203      2.000000
 -0.079120  0.068520  0.056203      2.000000
 -0.059340  0.079940  0.056203      2.000000
 -0.039560  0.091360  0.056202      2.000000
 -0.019780  0.102780  0.056202      2.000000
 -0.000000  0.137040  0.056202      2.000000
  0.019780  0.148459  0.056202      2.000000
  0.039560  0.159879  0.056202      2.000000
  0.059340  0.171299  0.056202      2.000000
  0.079119  0.182719  0.056201      2.000000
  0.098899  0.194139  0.056201      2.000000
  0.118679  0.205559  0.056201      2.000000
 -0.118680  0.068520  0.056203      2.000000
 -0.098900  0.079940  0.056203      2.000000
 -0.079120  0.091360  0.056203      2.000000
 -0.059340  0.102780  0.056203      2.000000
 -0.039560  0.114200  0.056203      2.000000
 -0.019780  0.125620  0.056202      2.000000
 -0.000000 -0.137039  0.056200      2.000000
  0.019780 -0.125619  0.056199      2.000000
  0.039560 -0.114199  0.056199      2.000000
  0.059340 -0.102779  0.056199      2.000000
  0.079119 -0.091359  0.056199      2.000000
  0.098899 -0.079939  0.056199      2.000000
  0.118679 -0.068520  0.056198      2.000000
 -0.118680 -0.205559  0.056201      2.000000
 -0.098900 -0.194139  0.056201      2.000000
 -0.079120 -0.182719  0.056200      2.000000
 -0.059340 -0.171299  0.056200      2.000000
 -0.039560 -0.159879  0.056200      2.000000
 -0.019780 -0.148459  0.056200      2.000000
 -0.000000 -0.114199  0.056200      2.000000
  0.019780 -0.102779  0.056200      2.000000
  0.039560 -0.091359  0.056199      2.000000
  0.059340 -0.079939  0.056199      2.000000
  0.079119 -0.068520  0.056199      2.000000
  0.098899 -0.057100  0.056199      2.000000
  0.118679 -0.045680  0.056199      2.000000
 -0.118680 -0.182719  0.056201      2.000000
 -0.098900 -0.171299  0.056201      2.000000
 -0.079120 -0.159879  0.056201      2.000000
 -0.059340 -0.148459  0.056200      2.000000
 -0.039560 -0.137039  0.056200      2.000000
 -0.019780 -0.125619  0.056200      2.000000
 -0.000000 -0.091359  0.056200      2.000000
  0.019780 -0.079939  0.056200      2.000000
  0.039560 -0.068520  0.056200      2.000000
  0.059340 -0.057100  0.056199      2.000000
  0.079119 -0.045680  0.056199      2.000000
  0.098899 -0.034260  0.056199      2.000000
  0.118679 -0.022840  0.056199      2.000000
 -0.118680 -0.159879  0.056201      2.000000
 -0.098900 -0.148459  0.056201      2.000000
 -0.079120 -0.137039  0.056201      2.000000
 -0.059340 -0.125619  0.056201      2.000000
 -0.039560 -0.114199  0.056200      2.000000
 -0.019780 -0.102779  0.056200      2.000000
 -0.000000 -0.068520  0.056200      2.000000
  0.019780 -0.057100  0.056200      2.000000
  0.039560 -0.045680  0.056200      2.000000
  0.059340 -0.034260  0.056200      2.000000
  0.079119 -0.022840  0.056199      2.000000
  0.098899 -0.011420  0.056199      2.000000
  0.118679  0.000000  0.056199      2.000000
 -0.118680 -0.137039  0.056202      2.000000
 -0.098900 -0.125619  0.056201      2.000000
 -0.079120 -0.114199  0.056201      2.000000
 -0.059340 -0.102779  0.056201      2.000000
 -0.039560 -0.091359  0.056201      2.000000
 -0.019780 -0.079939  0.056200      2.000000
 -0.000000 -0.045680  0.056200      2.000000
  0.019780 -0.034260  0.056200      2.000000
  0.039560 -0.022840  0.056200      2.000000
  0.059340 -0.011420  0.056200      2.000000
  0.079119  0.000000  0.056200      2.000000
  0.098899  0.011420  0.056199      2.000000
  0.118679  0.022840  0.056199      2.000000
 -0.118680 -0.114199  0.056202      2.000000
 -0.098900 -0.102779  0.056202      2.000000
 -0.079120 -0.091359  0.056201      2.000000
 -0.059340 -0.079939  0.056201      2.000000
 -0.039560 -0.068520  0.056201      2.000000
 -0.019780 -0.057100  0.056201      2.000000
 -0.000000 -0.022840  0.056201      2.000000
  0.019780 -0.011420  0.056200      2.000000
  0.039560  0.000000  0.056200      2.000000
  0.059340  0.011420  0.056200      2.000000
  0.079119  0.022840  0.056200      2.000000
  0.098899  0.034260  0.056200      2.000000
  0.118679  0.045680  0.056199      2.000000
 -0.118680 -0.091359  0.056202      2.000000
 -0.098900 -0.079939  0.056202      2.000000
 -0.079120 -0.068520  0.056202      2.000000
 -0.059340 -0.057100  0.056201      2.000000
 -0.039560 -0.045680  0.056201      2.000000
 -0.019780 -0.034260  0.056201      2.000000
 
 TETIRR: Found   1518 inequivalent tetrahedra from     3042


--------------------------------------------------------------------------------------------------------




 Dimension of arrays:
   k-points           NKPTS =    254   k-points in BZ     NKDIM =    254   number of bands    NBANDS=     10
   number of dos      NEDOS =    301   number of ions     NIONS =      4
   non local maximal  LDIM  =      4   non local SUM 2l+1 LMDIM =      8
   total plane-waves  NPLWV =  20736
   max r-space proj   IRMAX =      1   max aug-charges    IRDMAX=   9123
   dimension x,y,z NGX =    24 NGY =   24 NGZ =   36
   dimension x,y,z NGXF=    48 NGYF=   48 NGZF=   72
   support grid    NGXF=    48 NGYF=   48 NGZF=   72
   ions per type =               2   2
   NGX,Y,Z   is equivalent  to a cutoff of  10.26, 10.26, 10.09 a.u.
   NGXF,Y,Z  is equivalent  to a cutoff of  20.52, 20.52, 20.18 a.u.

 SYSTEM =  unknown system                          
 POSCAR =  Si  H                                   

 Startparameter for this run:
   NWRITE =      2    write-flag & timer
   PREC   = normal    normal or accurate (medium, high low for compatibility)
   ISTART =      0    job   : 0-new  1-cont  2-samecut
   ICHARG =      2    charge: 1-file 2-atom 10-const
   ISPIN  =      1    spin polarized calculation?
   LNONCOLLINEAR =      F non collinear calculations
   LSORBIT =      F    spin-orbit coupling
   INIWAV =      1    electr: 0-lowe 1-rand  2-diag
   LASPH  =      F    aspherical Exc in radial PAW
   METAGGA=      F    non-selfconsistent MetaGGA calc.

 Electronic Relaxation 1
   ENCUT  =  550.0 eV  40.42 Ry    6.36 a.u.   7.44  7.44 11.34*2*pi/ulx,y,z
   ENINI  =  550.0     initial cutoff
   ENAUG  =  400.0 eV  augmentation charge cutoff
   NELM   =    200;   NELMIN=  2; NELMDL= -5     # of ELM steps 
   EDIFF  = 0.1E-04   stopping-criterion for ELM
   LREAL  =      F    real-space projection
   NLSPLINE    = F    spline interpolate recip. space projectors
   LCOMPAT=      F    compatible to vasp.4.4
   GGA_COMPAT  = T    GGA compatible to vasp.4.4-vasp.4.6
   LMAXPAW     = -100 max onsite density
   LMAXMIX     =    2 max onsite mixed and CHGCAR
   VOSKOWN=      0    Vosko Wilk Nusair interpolation
   ROPT   =    0.00000   0.00000
 Ionic relaxation
   EDIFFG = -.1E-01   stopping-criterion for IOM
   NSW    =   2000    number of steps for IOM
   NBLOCK =      1;   KBLOCK =   2000    inner block; outer block 
   IBRION =      2    ionic relax: 0-MD 1-quasi-New 2-CG
   NFREE  =      1    steps in history (QN), initial steepest desc. (CG)
   ISIF   =      3    stress and relaxation
   IWAVPR =     11    prediction:  0-non 1-charg 2-wave 3-comb
   ISYM   =      2    0-nonsym 1-usesym 2-fastsym
   LCORR  =      T    Harris-Foulkes like correction to forces

   POTIM  = 0.5000    time-step for ionic-motion
   TEIN   =    0.0    initial temperature
   TEBEG  =    0.0;   TEEND  =   0.0 temperature during run
   SMASS  =  -3.00    Nose mass-parameter (am)
   estimated Nose-frequenzy (Omega)   =  0.10E-29 period in steps =****** mass=  -0.346E-27a.u.
   SCALEE = 1.0000    scale energy and forces
   NPACO  =    256;   APACO  = 16.0  distance and # of slots for P.C.
   PSTRESS=    0.0 pullay stress

  Mass of Ions in am
   POMASS =  28.09  1.00
  Ionic Valenz
   ZVAL   =   4.00  1.00
  Atomic Wigner-Seitz radii
   RWIGS  =  -1.00 -1.00
  virtual crystal weights 
   VCA    =   1.00  1.00
   NELECT =      10.0000    total number of electrons
   NUPDOWN=      -1.0000    fix difference up-down

 DOS related values:
   EMIN   =  10.00;   EMAX   =-10.00  energy-range for DOS
   EFERMI =   0.00
   ISMEAR =    -5;   SIGMA  =   0.10  broadening in eV -4-tet -1-fermi 0-gaus

 Electronic relaxation 2 (details)
   IALGO  =     38    algorithm
   LDIAG  =      T    sub-space diagonalisation (order eigenvalues)
   LSUBROT=      F    optimize rotation matrix (better conditioning)
   TURBO    =      0    0=normal 1=particle mesh
   IRESTART =      0    0=no restart 2=restart with 2 vectors
   NREBOOT  =      0    no. of reboots
   NMIN     =      0    reboot dimension
   EREF     =   0.00    reference energy to select bands
   IMIX   =      4    mixing-type and parameters
     AMIX     =   0.40;   BMIX     =  1.00
     AMIX_MAG =   1.60;   BMIX_MAG =  1.00
     AMIN     =   0.10
     WC   =   100.;   INIMIX=   1;  MIXPRE=   1;  MAXMIX= -45

 Intra band minimization:
   WEIMIN = 0.0010     energy-eigenvalue tresh-hold
   EBREAK =  0.25E-06  absolut break condition
   DEPER  =   0.30     relativ break condition  

   TIME   =   0.40     timestep for ELM

  volume/ion in A,a.u.               =      19.42       131.06
  Fermi-wavevector in a.u.,A,eV,Ry     =   0.826605  1.562058  9.296540  0.683276
  Thomas-Fermi vector in A             =   1.938666
 
 Write flags
   LWAVE        =      T    write WAVECAR
   LDOWNSAMPLE  =      F    k-point downsampling of WAVECAR
   LCHARG       =      T    write CHGCAR
   LVTOT        =      F    write LOCPOT, total local potential
   LVHAR        =      F    write LOCPOT, Hartree potential only
   LELF         =      F    write electronic localiz. function (ELF)
   LORBIT       =      0    0 simple, 1 ext, 2 COOP (PROOUT), +10 PAW based schemes


 Dipole corrections
   LMONO  =      F    monopole corrections only (constant potential shift)
   LDIPOL =      F    correct potential (dipole corrections)
   IDIPOL =      0    1-x, 2-y, 3-z, 4-all directions 
   EPSILON=  1.0000000 bulk dielectric constant

 Exchange correlation treatment:
   GGA     =    --    GGA type
   LEXCH   =     8    internal setting for exchange type
   VOSKOWN=      0    Vosko Wilk Nusair interpolation
   LHFCALC =     F    Hartree Fock is set to
   LHFONE  =     F    Hartree Fock one center treatment
   AEXX    =    0.0000 exact exchange contribution

 Linear response parameters
   LEPSILON=     F    determine dielectric tensor
   LRPA    =     F    only Hartree local field effects (RPA)
   LNABLA  =     F    use nabla operator in PAW spheres
   LVEL    =     F    velocity operator in full k-point grid
   LINTERFAST=   F  fast interpolation
   KINTER  =     0    interpolate to denser k-point grid
   CSHIFT  =0.1000    complex shift for real part using Kramers Kronig
   OMEGAMAX=  -1.0    maximum frequency
   DEG_THRESHOLD= 0.2000000E-02 threshold for treating states as degnerate
   RTIME   =   -0.100 relaxation time in fs
  (WPLASMAI=    0.000 imaginary part of plasma frequency in eV, 0.658/RTIME)
   DFIELD  = 0.0000000 0.0000000 0.0000000 field for delta impulse in time
 
 Orbital magnetization related:
   ORBITALMAG=     F  switch on orbital magnetization
   LCHIMAG   =     F  perturbation theory with respect to B field
   DQ        =  0.001000  dq finite difference perturbation B field
   LLRAUG    =     F  two centre corrections for induced B field



--------------------------------------------------------------------------------------------------------


 conjugate gradient relaxation of ions
 charge density and potential will be updated during run
 non-spin polarized calculation
 Variant of blocked Davidson
 Davidson routine will perform the subspace rotation
 perform sub-space diagonalisation
    after iterative eigenvector-optimisation
 modified Broyden-mixing scheme, WC =      100.0
 initial mixing is a Kerker type mixing with AMIX =  0.4000 and BMIX =      1.0000
 Hartree-type preconditioning will be used
 using additional bands            5
 reciprocal scheme for non local part
 use partial core corrections
 calculate Harris-corrections to forces 
   (improved forces if not selfconsistent)
 use gradient corrections 
 use of overlap-Matrix (Vanderbilt PP)
 Fermi weights with tetrahedron method with Bloechl corrections


--------------------------------------------------------------------------------------------------------


  energy-cutoff  :      550.00
  volume of cell :       77.68
      direct lattice vectors                 reciprocal lattice vectors
     3.888945790 -0.000000120  0.000019060     0.257139099  0.148459339 -0.000002760
    -1.944473000  3.367925780 -0.000019060     0.000000009  0.296918662  0.000002759
     0.000095480 -0.000055120  5.931102620    -0.000000826  0.000000477  0.168602714

  length of vectors
     3.888945790  3.888945784  5.931102621     0.296918662  0.296918662  0.168602714


 
 k-points in units of 2pi/SCALE and weight: Automatic                               
   0.00000000  0.00000000  0.00000000       0.002
   0.01977993  0.01141995 -0.00000021       0.004
   0.03955986  0.02283990 -0.00000042       0.004
   0.05933979  0.03425985 -0.00000064       0.004
   0.07911972  0.04567980 -0.00000085       0.004
   0.09889965  0.05709975 -0.00000106       0.004
   0.11867958  0.06851970 -0.00000127       0.004
   0.00000000  0.02283990  0.00000021       0.004
   0.01977993  0.03425985 -0.00000000       0.004
   0.03955986  0.04567980 -0.00000021       0.004
   0.05933979  0.05709974 -0.00000042       0.004
   0.07911972  0.06851969 -0.00000064       0.004
   0.09889965  0.07993964 -0.00000085       0.004
   0.11867959  0.09135959 -0.00000106       0.004
  -0.11867958 -0.04567980  0.00000149       0.004
  -0.09889965 -0.03425985  0.00000127       0.004
  -0.07911972 -0.02283990  0.00000106       0.004
  -0.05933979 -0.01141995  0.00000085       0.004
  -0.03955986 -0.00000000  0.00000064       0.004
  -0.01977993  0.01141995  0.00000042       0.004
   0.00000000  0.04567979  0.00000042       0.004
   0.01977993  0.05709974  0.00000021       0.004
   0.03955986  0.06851969 -0.00000000       0.004
   0.05933979  0.07993964 -0.00000021       0.004
   0.07911972  0.09135959 -0.00000042       0.004
   0.09889966  0.10277954 -0.00000064       0.004
   0.11867959  0.11419949 -0.00000085       0.004
  -0.11867958 -0.02283990  0.00000170       0.004
  -0.09889965 -0.01141995  0.00000149       0.004
  -0.07911972 -0.00000000  0.00000127       0.004
  -0.05933979  0.01141995  0.00000106       0.004
  -0.03955986  0.02283990  0.00000085       0.004
  -0.01977993  0.03425985  0.00000064       0.004
   0.00000000  0.06851969  0.00000064       0.004
   0.01977993  0.07993964  0.00000042       0.004
   0.03955986  0.09135959  0.00000021       0.004
   0.05933979  0.10277954 -0.00000000       0.004
   0.07911972  0.11419949 -0.00000021       0.004
   0.09889966  0.12561944 -0.00000042       0.004
   0.11867959  0.13703939 -0.00000064       0.004
  -0.11867958 -0.00000000  0.00000191       0.004
  -0.09889965  0.01141995  0.00000170       0.004
  -0.07911972  0.02283989  0.00000149       0.004
  -0.05933979  0.03425984  0.00000127       0.004
  -0.03955986  0.04567979  0.00000106       0.004
  -0.01977993  0.05709974  0.00000085       0.004
   0.00000000  0.09135959  0.00000085       0.004
   0.01977993  0.10277954  0.00000064       0.004
   0.03955986  0.11419949  0.00000042       0.004
   0.05933979  0.12561944  0.00000021       0.004
   0.07911973  0.13703939 -0.00000000       0.004
   0.09889966  0.14845933 -0.00000021       0.004
   0.11867959  0.15987928 -0.00000042       0.004
  -0.11867958  0.02283989  0.00000212       0.004
  -0.09889965  0.03425984  0.00000191       0.004
  -0.07911972  0.04567979  0.00000170       0.004
  -0.05933979  0.05709974  0.00000149       0.004
  -0.03955986  0.06851969  0.00000127       0.004
  -0.01977993  0.07993964  0.00000106       0.004
   0.00000000  0.11419949  0.00000106       0.004
   0.01977993  0.12561943  0.00000085       0.004
   0.03955986  0.13703938  0.00000064       0.004
   0.05933980  0.14845933  0.00000042       0.004
   0.07911973  0.15987928  0.00000021       0.004
   0.09889966  0.17129923 -0.00000000       0.004
   0.11867959  0.18271918 -0.00000021       0.004
  -0.11867958  0.04567979  0.00000234       0.004
  -0.09889965  0.05709974  0.00000212       0.004
  -0.07911972  0.06851969  0.00000191       0.004
  -0.05933979  0.07993964  0.00000170       0.004
  -0.03955986  0.09135959  0.00000149       0.004
  -0.01977993  0.10277954  0.00000127       0.004
   0.00000000  0.13703938  0.00000127       0.004
   0.01977993  0.14845933  0.00000106       0.004
   0.03955987  0.15987928  0.00000085       0.004
   0.05933980  0.17129923  0.00000064       0.004
   0.07911973  0.18271918  0.00000042       0.004
   0.09889966  0.19413913  0.00000021       0.004
   0.11867959  0.20555908 -0.00000000       0.004
  -0.11867958  0.06851969  0.00000255       0.004
  -0.09889965  0.07993964  0.00000234       0.004
  -0.07911972  0.09135959  0.00000212       0.004
  -0.05933979  0.10277954  0.00000191       0.004
  -0.03955986  0.11419948  0.00000170       0.004
  -0.01977993  0.12561943  0.00000149       0.004
  -0.00000028  0.00000016  0.05620090       0.004
   0.01977966  0.01142011  0.05620069       0.004
   0.03955959  0.02284006  0.05620048       0.004
   0.05933952  0.03426001  0.05620027       0.004
   0.07911945  0.04567996  0.05620006       0.004
   0.09889938  0.05709990  0.05619984       0.004
   0.11867931  0.06851985  0.05619963       0.004
  -0.11867986 -0.06851954  0.05620218       0.004
  -0.09889993 -0.05709959  0.05620197       0.004
  -0.07912000 -0.04567964  0.05620175       0.004
  -0.05934007 -0.03425969  0.05620154       0.004
  -0.03956014 -0.02283974  0.05620133       0.004
  -0.01978021 -0.01141979  0.05620112       0.004
  -0.00000027  0.02284006  0.05620112       0.004
   0.01977966  0.03426001  0.05620090       0.004
   0.03955959  0.04567995  0.05620069       0.004
   0.05933952  0.05709990  0.05620048       0.004
   0.07911945  0.06851985  0.05620027       0.004
   0.09889938  0.07993980  0.05620006       0.004
   0.11867931  0.09135975  0.05619984       0.004
  -0.11867986 -0.04567964  0.05620239       0.004
  -0.09889993 -0.03425969  0.05620218       0.004
  -0.07912000 -0.02283974  0.05620197       0.004
  -0.05934007 -0.01141979  0.05620175       0.004
  -0.03956014  0.00000016  0.05620154       0.004
  -0.01978021  0.01142011  0.05620133       0.004
  -0.00000027  0.04567995  0.05620133       0.004
   0.01977966  0.05709990  0.05620112       0.004
   0.03955959  0.06851985  0.05620090       0.004
   0.05933952  0.07993980  0.05620069       0.004
   0.07911945  0.09135975  0.05620048       0.004
   0.09889938  0.10277970  0.05620027       0.004
   0.11867931  0.11419965  0.05620006       0.004
  -0.11867986 -0.02283974  0.05620260       0.004
  -0.09889993 -0.01141979  0.05620239       0.004
  -0.07912000  0.00000016  0.05620218       0.004
  -0.05934007  0.01142011  0.05620197       0.004
  -0.03956014  0.02284005  0.05620175       0.004
  -0.01978020  0.03426000  0.05620154       0.004
  -0.00000027  0.06851985  0.05620154       0.004
   0.01977966  0.07993980  0.05620133       0.004
   0.03955959  0.09135975  0.05620112       0.004
   0.05933952  0.10277970  0.05620090       0.004
   0.07911945  0.11419965  0.05620069       0.004
   0.09889938  0.12561960  0.05620048       0.004
   0.11867931  0.13703955  0.05620027       0.004
  -0.11867986  0.00000016  0.05620282       0.004
  -0.09889993  0.01142010  0.05620260       0.004
  -0.07912000  0.02284005  0.05620239       0.004
  -0.05934007  0.03426000  0.05620218       0.004
  -0.03956013  0.04567995  0.05620197       0.004
  -0.01978020  0.05709990  0.05620175       0.004
  -0.00000027  0.09135975  0.05620175       0.004
   0.01977966  0.10277970  0.05620154       0.004
   0.03955959  0.11419965  0.05620133       0.004
   0.05933952  0.12561959  0.05620112       0.004
   0.07911945  0.13703954  0.05620090       0.004
   0.09889938  0.14845949  0.05620069       0.004
   0.11867931  0.15987944  0.05620048       0.004
  -0.11867986  0.02284005  0.05620303       0.004
  -0.09889993  0.03426000  0.05620282       0.004
  -0.07912000  0.04567995  0.05620260       0.004
  -0.05934006  0.05709990  0.05620239       0.004
  -0.03956013  0.06851985  0.05620218       0.004
  -0.01978020  0.07993980  0.05620197       0.004
  -0.00000027  0.11419964  0.05620197       0.004
   0.01977966  0.12561959  0.05620175       0.004
   0.03955959  0.13703954  0.05620154       0.004
   0.05933952  0.14845949  0.05620133       0.004
   0.07911945  0.15987944  0.05620112       0.004
   0.09889938  0.17129939  0.05620090       0.004
   0.11867931  0.18271934  0.05620069       0.004
  -0.11867986  0.04567995  0.05620324       0.004
  -0.09889993  0.05709990  0.05620303       0.004
  -0.07911999  0.06851985  0.05620282       0.004
  -0.05934006  0.07993980  0.05620260       0.004
  -0.03956013  0.09135975  0.05620239       0.004
  -0.01978020  0.10277970  0.05620218       0.004
  -0.00000027  0.13703954  0.05620218       0.004
   0.01977966  0.14845949  0.05620197       0.004
   0.03955959  0.15987944  0.05620175       0.004
   0.05933952  0.17129939  0.05620154       0.004
   0.07911945  0.18271934  0.05620133       0.004
   0.09889938  0.19413929  0.05620112       0.004
   0.11867931  0.20555924  0.05620090       0.004
  -0.11867986  0.06851985  0.05620345       0.004
  -0.09889992  0.07993980  0.05620324       0.004
  -0.07911999  0.09135975  0.05620303       0.004
  -0.05934006  0.10277969  0.05620282       0.004
  -0.03956013  0.11419964  0.05620260       0.004
  -0.01978020  0.12561959  0.05620239       0.004
  -0.00000028 -0.13703922  0.05619963       0.004
   0.01977965 -0.12561927  0.05619942       0.004
   0.03955958 -0.11419933  0.05619921       0.004
   0.05933951 -0.10277938  0.05619899       0.004
   0.07911944 -0.09135943  0.05619878       0.004
   0.09889937 -0.07993948  0.05619857       0.004
   0.11867930 -0.06851953  0.05619836       0.004
  -0.11867986 -0.20555892  0.05620090       0.004
  -0.09889993 -0.19413897  0.05620069       0.004
  -0.07912000 -0.18271902  0.05620048       0.004
  -0.05934007 -0.17129907  0.05620027       0.004
  -0.03956014 -0.15987912  0.05620006       0.004
  -0.01978021 -0.14845917  0.05619984       0.004
  -0.00000028 -0.11419933  0.05619984       0.004
   0.01977965 -0.10277938  0.05619963       0.004
   0.03955958 -0.09135943  0.05619942       0.004
   0.05933951 -0.07993948  0.05619921       0.004
   0.07911944 -0.06851953  0.05619899       0.004
   0.09889937 -0.05709958  0.05619878       0.004
   0.11867931 -0.04567963  0.05619857       0.004
  -0.11867986 -0.18271902  0.05620112       0.004
  -0.09889993 -0.17129907  0.05620090       0.004
  -0.07912000 -0.15987912  0.05620069       0.004
  -0.05934007 -0.14845917  0.05620048       0.004
  -0.03956014 -0.13703922  0.05620027       0.004
  -0.01978021 -0.12561928  0.05620006       0.004
  -0.00000028 -0.09135943  0.05620006       0.004
   0.01977965 -0.07993948  0.05619984       0.004
   0.03955958 -0.06851953  0.05619963       0.004
   0.05933951 -0.05709958  0.05619942       0.004
   0.07911944 -0.04567963  0.05619921       0.004
   0.09889938 -0.03425968  0.05619899       0.004
   0.11867931 -0.02283973  0.05619878       0.004
  -0.11867986 -0.15987912  0.05620133       0.004
  -0.09889993 -0.14845918  0.05620112       0.004
  -0.07912000 -0.13703923  0.05620090       0.004
  -0.05934007 -0.12561928  0.05620069       0.004
  -0.03956014 -0.11419933  0.05620048       0.004
  -0.01978021 -0.10277938  0.05620027       0.004
  -0.00000028 -0.06851953  0.05620027       0.004
   0.01977965 -0.05709958  0.05620006       0.004
   0.03955958 -0.04567963  0.05619984       0.004
   0.05933951 -0.03425968  0.05619963       0.004
   0.07911945 -0.02283974  0.05619942       0.004
   0.09889938 -0.01141979  0.05619921       0.004
   0.11867931  0.00000016  0.05619899       0.004
  -0.11867986 -0.13703923  0.05620154       0.004
  -0.09889993 -0.12561928  0.05620133       0.004
  -0.07912000 -0.11419933  0.05620112       0.004
  -0.05934007 -0.10277938  0.05620090       0.004
  -0.03956014 -0.09135943  0.05620069       0.004
  -0.01978021 -0.07993948  0.05620048       0.004
  -0.00000028 -0.04567964  0.05620048       0.004
   0.01977965 -0.03425969  0.05620027       0.004
   0.03955958 -0.02283974  0.05620006       0.004
   0.05933952 -0.01141979  0.05619984       0.004
   0.07911945  0.00000016  0.05619963       0.004
   0.09889938  0.01142011  0.05619942       0.004
   0.11867931  0.02284006  0.05619921       0.004
  -0.11867986 -0.11419933  0.05620175       0.004
  -0.09889993 -0.10277938  0.05620154       0.004
  -0.07912000 -0.09135943  0.05620133       0.004
  -0.05934007 -0.07993948  0.05620112       0.004
  -0.03956014 -0.06851953  0.05620090       0.004
  -0.01978021 -0.05709958  0.05620069       0.004
  -0.00000028 -0.02283974  0.05620069       0.004
   0.01977965 -0.01141979  0.05620048       0.004
   0.03955959  0.00000016  0.05620027       0.004
   0.05933952  0.01142011  0.05620006       0.004
   0.07911945  0.02284006  0.05619984       0.004
   0.09889938  0.03426001  0.05619963       0.004
   0.11867931  0.04567996  0.05619942       0.004
  -0.11867986 -0.09135943  0.05620197       0.004
  -0.09889993 -0.07993948  0.05620175       0.004
  -0.07912000 -0.06851953  0.05620154       0.004
  -0.05934007 -0.05709959  0.05620133       0.004
  -0.03956014 -0.04567964  0.05620112       0.004
  -0.01978021 -0.03425969  0.05620090       0.004
 
 k-points in reciprocal lattice and weights: Automatic                               
   0.00000000  0.00000000  0.00000000       0.002
   0.07692308  0.00000000 -0.00000000       0.004
   0.15384615  0.00000000 -0.00000000       0.004
   0.23076923  0.00000000 -0.00000000       0.004
   0.30769231  0.00000000 -0.00000000       0.004
   0.38461538  0.00000000 -0.00000000       0.004
   0.46153846  0.00000000 -0.00000000       0.004
   0.00000000  0.07692308  0.00000000       0.004
   0.07692308  0.07692308 -0.00000000       0.004
   0.15384615  0.07692308 -0.00000000       0.004
   0.23076923  0.07692308 -0.00000000       0.004
   0.30769231  0.07692308 -0.00000000       0.004
   0.38461538  0.07692308 -0.00000000       0.004
   0.46153846  0.07692308 -0.00000000       0.004
  -0.46153846  0.07692308  0.00000000       0.004
  -0.38461538  0.07692308  0.00000000       0.004
  -0.30769231  0.07692308  0.00000000       0.004
  -0.23076923  0.07692308  0.00000000       0.004
  -0.15384615  0.07692308  0.00000000       0.004
  -0.07692308  0.07692308  0.00000000       0.004
   0.00000000  0.15384615  0.00000000       0.004
   0.07692308  0.15384615  0.00000000       0.004
   0.15384615  0.15384615 -0.00000000       0.004
   0.23076923  0.15384615 -0.00000000       0.004
   0.30769231  0.15384615 -0.00000000       0.004
   0.38461538  0.15384615 -0.00000000       0.004
   0.46153846  0.15384615 -0.00000000       0.004
  -0.46153846  0.15384615  0.00000000       0.004
  -0.38461538  0.15384615  0.00000000       0.004
  -0.30769231  0.15384615  0.00000000       0.004
  -0.23076923  0.15384615  0.00000000       0.004
  -0.15384615  0.15384615  0.00000000       0.004
  -0.07692308  0.15384615  0.00000000       0.004
   0.00000000  0.23076923  0.00000000       0.004
   0.07692308  0.23076923  0.00000000       0.004
   0.15384615  0.23076923  0.00000000       0.004
   0.23076923  0.23076923 -0.00000000       0.004
   0.30769231  0.23076923  0.00000000       0.004
   0.38461538  0.23076923 -0.00000000       0.004
   0.46153846  0.23076923 -0.00000000       0.004
  -0.46153846  0.23076923  0.00000000       0.004
  -0.38461538  0.23076923  0.00000000       0.004
  -0.30769231  0.23076923  0.00000000       0.004
  -0.23076923  0.23076923  0.00000000       0.004
  -0.15384615  0.23076923  0.00000000       0.004
  -0.07692308  0.23076923  0.00000000       0.004
   0.00000000  0.30769231  0.00000000       0.004
   0.07692308  0.30769231  0.00000000       0.004
   0.15384615  0.30769231 -0.00000000       0.004
   0.23076923  0.30769231 -0.00000000       0.004
   0.30769231  0.30769231 -0.00000000       0.004
   0.38461538  0.30769231 -0.00000000       0.004
   0.46153846  0.30769231 -0.00000000       0.004
  -0.46153846  0.30769231  0.00000000       0.004
  -0.38461538  0.30769231  0.00000000       0.004
  -0.30769231  0.30769231  0.00000000       0.004
  -0.23076923  0.30769231  0.00000000       0.004
  -0.15384615  0.30769231  0.00000000       0.004
  -0.07692308  0.30769231  0.00000000       0.004
   0.00000000  0.38461538  0.00000000       0.004
   0.07692308  0.38461538  0.00000000       0.004
   0.15384615  0.38461538  0.00000000       0.004
   0.23076923  0.38461538 -0.00000000       0.004
   0.30769231  0.38461538 -0.00000000       0.004
   0.38461538  0.38461538 -0.00000000       0.004
   0.46153846  0.38461538 -0.00000000       0.004
  -0.46153846  0.38461538  0.00000000       0.004
  -0.38461538  0.38461538  0.00000000       0.004
  -0.30769231  0.38461538  0.00000000       0.004
  -0.23076923  0.38461538  0.00000000       0.004
  -0.15384615  0.38461538  0.00000000       0.004
  -0.07692308  0.38461538  0.00000000       0.004
   0.00000000  0.46153846  0.00000000       0.004
   0.07692308  0.46153846  0.00000000       0.004
   0.15384615  0.46153846  0.00000000       0.004
   0.23076923  0.46153846  0.00000000       0.004
   0.30769231  0.46153846  0.00000000       0.004
   0.38461538  0.46153846 -0.00000000       0.004
   0.46153846  0.46153846 -0.00000000       0.004
  -0.46153846  0.46153846  0.00000000       0.004
  -0.38461538  0.46153846  0.00000000       0.004
  -0.30769231  0.46153846  0.00000000       0.004
  -0.23076923  0.46153846  0.00000000       0.004
  -0.15384615  0.46153846  0.00000000       0.004
  -0.07692308  0.46153846  0.00000000       0.004
   0.00000000 -0.00000000  0.33333333       0.004
   0.07692308  0.00000000  0.33333333       0.004
   0.15384615  0.00000000  0.33333333       0.004
   0.23076923  0.00000000  0.33333333       0.004
   0.30769231  0.00000000  0.33333333       0.004
   0.38461538  0.00000000  0.33333333       0.004
   0.46153846  0.00000000  0.33333333       0.004
  -0.46153846 -0.00000000  0.33333333       0.004
  -0.38461538 -0.00000000  0.33333333       0.004
  -0.30769231 -0.00000000  0.33333333       0.004
  -0.23076923 -0.00000000  0.33333333       0.004
  -0.15384615 -0.00000000  0.33333333       0.004
  -0.07692308 -0.00000000  0.33333333       0.004
   0.00000000  0.07692308  0.33333333       0.004
   0.07692308  0.07692308  0.33333333       0.004
   0.15384615  0.07692308  0.33333333       0.004
   0.23076923  0.07692308  0.33333333       0.004
   0.30769231  0.07692308  0.33333333       0.004
   0.38461538  0.07692308  0.33333333       0.004
   0.46153846  0.07692308  0.33333333       0.004
  -0.46153846  0.07692308  0.33333333       0.004
  -0.38461538  0.07692308  0.33333333       0.004
  -0.30769231  0.07692308  0.33333333       0.004
  -0.23076923  0.07692308  0.33333333       0.004
  -0.15384615  0.07692308  0.33333333       0.004
  -0.07692308  0.07692308  0.33333333       0.004
   0.00000000  0.15384615  0.33333333       0.004
   0.07692308  0.15384615  0.33333333       0.004
   0.15384615  0.15384615  0.33333333       0.004
   0.23076923  0.15384615  0.33333333       0.004
   0.30769231  0.15384615  0.33333333       0.004
   0.38461538  0.15384615  0.33333333       0.004
   0.46153846  0.15384615  0.33333333       0.004
  -0.46153846  0.15384615  0.33333333       0.004
  -0.38461538  0.15384615  0.33333333       0.004
  -0.30769231  0.15384615  0.33333333       0.004
  -0.23076923  0.15384615  0.33333333       0.004
  -0.15384615  0.15384615  0.33333333       0.004
  -0.07692308  0.15384615  0.33333333       0.004
   0.00000000  0.23076923  0.33333333       0.004
   0.07692308  0.23076923  0.33333333       0.004
   0.15384615  0.23076923  0.33333333       0.004
   0.23076923  0.23076923  0.33333333       0.004
   0.30769231  0.23076923  0.33333333       0.004
   0.38461538  0.23076923  0.33333333       0.004
   0.46153846  0.23076923  0.33333333       0.004
  -0.46153846  0.23076923  0.33333333       0.004
  -0.38461538  0.23076923  0.33333333       0.004
  -0.30769231  0.23076923  0.33333333       0.004
  -0.23076923  0.23076923  0.33333333       0.004
  -0.15384615  0.23076923  0.33333333       0.004
  -0.07692308  0.23076923  0.33333333       0.004
   0.00000000  0.30769231  0.33333333       0.004
   0.07692308  0.30769231  0.33333333       0.004
   0.15384615  0.30769231  0.33333333       0.004
   0.23076923  0.30769231  0.33333333       0.004
   0.30769231  0.30769231  0.33333333       0.004
   0.38461538  0.30769231  0.33333333       0.004
   0.46153846  0.30769231  0.33333333       0.004
  -0.46153846  0.30769231  0.33333333       0.004
  -0.38461538  0.30769231  0.33333333       0.004
  -0.30769231  0.30769231  0.33333333       0.004
  -0.23076923  0.30769231  0.33333333       0.004
  -0.15384615  0.30769231  0.33333333       0.004
  -0.07692308  0.30769231  0.33333333       0.004
   0.00000000  0.38461538  0.33333333       0.004
   0.07692308  0.38461538  0.33333333       0.004
   0.15384615  0.38461538  0.33333333       0.004
   0.23076923  0.38461538  0.33333333       0.004
   0.30769231  0.38461538  0.33333333       0.004
   0.38461538  0.38461538  0.33333333       0.004
   0.46153846  0.38461538  0.33333333       0.004
  -0.46153846  0.38461538  0.33333333       0.004
  -0.38461538  0.38461538  0.33333333       0.004
  -0.30769231  0.38461538  0.33333333       0.004
  -0.23076923  0.38461538  0.33333333       0.004
  -0.15384615  0.38461538  0.33333333       0.004
  -0.07692308  0.38461538  0.33333333       0.004
   0.00000000  0.46153846  0.33333333       0.004
   0.07692308  0.46153846  0.33333333       0.004
   0.15384615  0.46153846  0.33333333       0.004
   0.23076923  0.46153846  0.33333333       0.004
   0.30769231  0.46153846  0.33333333       0.004
   0.38461538  0.46153846  0.33333333       0.004
   0.46153846  0.46153846  0.33333333       0.004
  -0.46153846  0.46153846  0.33333333       0.004
  -0.38461538  0.46153846  0.33333333       0.004
  -0.30769231  0.46153846  0.33333333       0.004
  -0.23076923  0.46153846  0.33333333       0.004
  -0.15384615  0.46153846  0.33333333       0.004
  -0.07692308  0.46153846  0.33333333       0.004
   0.00000000 -0.46153846  0.33333333       0.004
   0.07692308 -0.46153846  0.33333333       0.004
   0.15384615 -0.46153846  0.33333333       0.004
   0.23076923 -0.46153846  0.33333333       0.004
   0.30769231 -0.46153846  0.33333333       0.004
   0.38461538 -0.46153846  0.33333333       0.004
   0.46153846 -0.46153846  0.33333333       0.004
  -0.46153846 -0.46153846  0.33333333       0.004
  -0.38461538 -0.46153846  0.33333333       0.004
  -0.30769231 -0.46153846  0.33333333       0.004
  -0.23076923 -0.46153846  0.33333333       0.004
  -0.15384615 -0.46153846  0.33333333       0.004
  -0.07692308 -0.46153846  0.33333333       0.004
  -0.00000000 -0.38461538  0.33333333       0.004
   0.07692308 -0.38461538  0.33333333       0.004
   0.15384615 -0.38461538  0.33333333       0.004
   0.23076923 -0.38461538  0.33333333       0.004
   0.30769231 -0.38461538  0.33333333       0.004
   0.38461538 -0.38461538  0.33333333       0.004
   0.46153846 -0.38461538  0.33333333       0.004
  -0.46153846 -0.38461538  0.33333333       0.004
  -0.38461538 -0.38461538  0.33333333       0.004
  -0.30769231 -0.38461538  0.33333333       0.004
  -0.23076923 -0.38461538  0.33333333       0.004
  -0.15384615 -0.38461538  0.33333333       0.004
  -0.07692308 -0.38461538  0.33333333       0.004
   0.00000000 -0.30769231  0.33333333       0.004
   0.07692308 -0.30769231  0.33333333       0.004
   0.15384615 -0.30769231  0.33333333       0.004
   0.23076923 -0.30769231  0.33333333       0.004
   0.30769231 -0.30769231  0.33333333       0.004
   0.38461538 -0.30769231  0.33333333       0.004
   0.46153846 -0.30769231  0.33333333       0.004
  -0.46153846 -0.30769231  0.33333333       0.004
  -0.38461538 -0.30769231  0.33333333       0.004
  -0.30769231 -0.30769231  0.33333333       0.004
  -0.23076923 -0.30769231  0.33333333       0.004
  -0.15384615 -0.30769231  0.33333333       0.004
  -0.07692308 -0.30769231  0.33333333       0.004
   0.00000000 -0.23076923  0.33333333       0.004
   0.07692308 -0.23076923  0.33333333       0.004
   0.15384615 -0.23076923  0.33333333       0.004
   0.23076923 -0.23076923  0.33333333       0.004
   0.30769231 -0.23076923  0.33333333       0.004
   0.38461538 -0.23076923  0.33333333       0.004
   0.46153846 -0.23076923  0.33333333       0.004
  -0.46153846 -0.23076923  0.33333333       0.004
  -0.38461538 -0.23076923  0.33333333       0.004
  -0.30769231 -0.23076923  0.33333333       0.004
  -0.23076923 -0.23076923  0.33333333       0.004
  -0.15384615 -0.23076923  0.33333333       0.004
  -0.07692308 -0.23076923  0.33333333       0.004
   0.00000000 -0.15384615  0.33333333       0.004
   0.07692308 -0.15384615  0.33333333       0.004
   0.15384615 -0.15384615  0.33333333       0.004
   0.23076923 -0.15384615  0.33333333       0.004
   0.30769231 -0.15384615  0.33333333       0.004
   0.38461538 -0.15384615  0.33333333       0.004
   0.46153846 -0.15384615  0.33333333       0.004
  -0.46153846 -0.15384615  0.33333333       0.004
  -0.38461538 -0.15384615  0.33333333       0.004
  -0.30769231 -0.15384615  0.33333333       0.004
  -0.23076923 -0.15384615  0.33333333       0.004
  -0.15384615 -0.15384615  0.33333333       0.004
  -0.07692308 -0.15384615  0.33333333       0.004
   0.00000000 -0.07692308  0.33333333       0.004
   0.07692308 -0.07692308  0.33333333       0.004
   0.15384615 -0.07692308  0.33333333       0.004
   0.23076923 -0.07692308  0.33333333       0.004
   0.30769231 -0.07692308  0.33333333       0.004
   0.38461538 -0.07692308  0.33333333       0.004
   0.46153846 -0.07692308  0.33333333       0.004
  -0.46153846 -0.07692308  0.33333333       0.004
  -0.38461538 -0.07692308  0.33333333       0.004
  -0.30769231 -0.07692308  0.33333333       0.004
  -0.23076923 -0.07692308  0.33333333       0.004
  -0.15384615 -0.07692308  0.33333333       0.004
  -0.07692308 -0.07692308  0.33333333       0.004
 
 position of ions in fractional coordinates (direct lattice) 
   0.33332737  0.66667205  0.47932071
   0.66666263  0.33333677  0.35815759
   0.33332195  0.66667489  0.73232534
   0.66666548  0.33333138  0.10514304
 
 position of ions in cartesian coordinates  (Angst):
   0.00001205  2.24527551  2.84289399
   1.94448470  1.12263366  2.12427579
   0.00000959  2.24527114  4.34349036
   1.94448207  1.12262948  0.62362054
 


--------------------------------------------------------------------------------------------------------


 k-point  1 :   0.0000 0.0000 0.0000  plane waves:    2273
 k-point  2 :   0.0769 0.0000-0.0000  plane waves:    2287
 k-point  3 :   0.1538 0.0000-0.0000  plane waves:    2291
 k-point  4 :   0.2308 0.0000-0.0000  plane waves:    2287
 k-point  5 :   0.3077 0.0000-0.0000  plane waves:    2289
 k-point  6 :   0.3846 0.0000-0.0000  plane waves:    2285
 k-point  7 :   0.4615 0.0000-0.0000  plane waves:    2270
 k-point  8 :   0.0000 0.0769 0.0000  plane waves:    2287
 k-point  9 :   0.0769 0.0769-0.0000  plane waves:    2301
 k-point 10 :   0.1538 0.0769-0.0000  plane waves:    2290
 k-point 11 :   0.2308 0.0769-0.0000  plane waves:    2286
 k-point 12 :   0.3077 0.0769-0.0000  plane waves:    2280
 k-point 13 :   0.3846 0.0769-0.0000  plane waves:    2269
 k-point 14 :   0.4615 0.0769-0.0000  plane waves:    2264
 k-point 15 :  -0.4615 0.0769 0.0000  plane waves:    2269
 k-point 16 :  -0.3846 0.0769 0.0000  plane waves:    2280
 k-point 17 :  -0.3077 0.0769 0.0000  plane waves:    2286
 k-point 18 :  -0.2308 0.0769 0.0000  plane waves:    2290
 k-point 19 :  -0.1538 0.0769 0.0000  plane waves:    2301
 k-point 20 :  -0.0769 0.0769 0.0000  plane waves:    2287
 k-point 21 :   0.0000 0.1538 0.0000  plane waves:    2291
 k-point 22 :   0.0769 0.1538 0.0000  plane waves:    2290
 k-point 23 :   0.1538 0.1538-0.0000  plane waves:    2291
 k-point 24 :   0.2308 0.1538-0.0000  plane waves:    2283
 k-point 25 :   0.3077 0.1538-0.0000  plane waves:    2264
 k-point 26 :   0.3846 0.1538-0.0000  plane waves:    2269
 k-point 27 :   0.4615 0.1538-0.0000  plane waves:    2269
 k-point 28 :  -0.4615 0.1538 0.0000  plane waves:    2264
 k-point 29 :  -0.3846 0.1538 0.0000  plane waves:    2283
 k-point 30 :  -0.3077 0.1538 0.0000  plane waves:    2291
 k-point 31 :  -0.2308 0.1538 0.0000  plane waves:    2290
 k-point 32 :  -0.1538 0.1538 0.0000  plane waves:    2291
 k-point 33 :  -0.0769 0.1538 0.0000  plane waves:    2301
 k-point 34 :   0.0000 0.2308 0.0000  plane waves:    2287
 k-point 35 :   0.0769 0.2308 0.0000  plane waves:    2286
 k-point 36 :   0.1538 0.2308 0.0000  plane waves:    2283
 k-point 37 :   0.2308 0.2308-0.0000  plane waves:    2277
 k-point 38 :   0.3077 0.2308 0.0000  plane waves:    2265
 k-point 39 :   0.3846 0.2308-0.0000  plane waves:    2256
 k-point 40 :   0.4615 0.2308-0.0000  plane waves:    2265
 k-point 41 :  -0.4615 0.2308 0.0000  plane waves:    2277
 k-point 42 :  -0.3846 0.2308 0.0000  plane waves:    2283
 k-point 43 :  -0.3077 0.2308 0.0000  plane waves:    2286
 k-point 44 :  -0.2308 0.2308 0.0000  plane waves:    2287
 k-point 45 :  -0.1538 0.2308 0.0000  plane waves:    2290
 k-point 46 :  -0.0769 0.2308 0.0000  plane waves:    2290
 k-point 47 :   0.0000 0.3077 0.0000  plane waves:    2289
 k-point 48 :   0.0769 0.3077 0.0000  plane waves:    2280
 k-point 49 :   0.1538 0.3077-0.0000  plane waves:    2264
 k-point 50 :   0.2308 0.3077-0.0000  plane waves:    2265
 k-point 51 :   0.3077 0.3077-0.0000  plane waves:    2258
 k-point 52 :   0.3846 0.3077-0.0000  plane waves:    2258
 k-point 53 :   0.4615 0.3077-0.0000  plane waves:    2265
 k-point 54 :  -0.4615 0.3077 0.0000  plane waves:    2264
 k-point 55 :  -0.3846 0.3077 0.0000  plane waves:    2280
 k-point 56 :  -0.3077 0.3077 0.0000  plane waves:    2289
 k-point 57 :  -0.2308 0.3077 0.0000  plane waves:    2286
 k-point 58 :  -0.1538 0.3077 0.0000  plane waves:    2291
 k-point 59 :  -0.0769 0.3077 0.0000  plane waves:    2286
 k-point 60 :   0.0000 0.3846 0.0000  plane waves:    2285
 k-point 61 :   0.0769 0.3846 0.0000  plane waves:    2269
 k-point 62 :   0.1538 0.3846 0.0000  plane waves:    2269
 k-point 63 :   0.2308 0.3846-0.0000  plane waves:    2256
 k-point 64 :   0.3077 0.3846-0.0000  plane waves:    2258
 k-point 65 :   0.3846 0.3846-0.0000  plane waves:    2256
 k-point 66 :   0.4615 0.3846-0.0000  plane waves:    2269
 k-point 67 :  -0.4615 0.3846 0.0000  plane waves:    2269
 k-point 68 :  -0.3846 0.3846 0.0000  plane waves:    2285
 k-point 69 :  -0.3077 0.3846 0.0000  plane waves:    2280
 k-point 70 :  -0.2308 0.3846 0.0000  plane waves:    2283
 k-point 71 :  -0.1538 0.3846 0.0000  plane waves:    2283
 k-point 72 :  -0.0769 0.3846 0.0000  plane waves:    2280
 k-point 73 :   0.0000 0.4615 0.0000  plane waves:    2270
 k-point 74 :   0.0769 0.4615 0.0000  plane waves:    2264
 k-point 75 :   0.1538 0.4615 0.0000  plane waves:    2269
 k-point 76 :   0.2308 0.4615 0.0000  plane waves:    2265
 k-point 77 :   0.3077 0.4615 0.0000  plane waves:    2265
 k-point 78 :   0.3846 0.4615-0.0000  plane waves:    2269
 k-point 79 :   0.4615 0.4615-0.0000  plane waves:    2264
 k-point 80 :  -0.4615 0.4615 0.0000  plane waves:    2270
 k-point 81 :  -0.3846 0.4615 0.0000  plane waves:    2269
 k-point 82 :  -0.3077 0.4615 0.0000  plane waves:    2264
 k-point 83 :  -0.2308 0.4615 0.0000  plane waves:    2277
 k-point 84 :  -0.1538 0.4615 0.0000  plane waves:    2264
 k-point 85 :  -0.0769 0.4615 0.0000  plane waves:    2269
 k-point 86 :   0.0000-0.0000 0.3333  plane waves:    2321
 k-point 87 :   0.0769 0.0000 0.3333  plane waves:    2284
 k-point 88 :   0.1538 0.0000 0.3333  plane waves:    2289
 k-point 89 :   0.2308 0.0000 0.3333  plane waves:    2279
 k-point 90 :   0.3077 0.0000 0.3333  plane waves:    2273
 k-point 91 :   0.3846 0.0000 0.3333  plane waves:    2270
 k-point 92 :   0.4615 0.0000 0.3333  plane waves:    2264
 k-point 93 :  -0.4615-0.0000 0.3333  plane waves:    2264
 k-point 94 :  -0.3846-0.0000 0.3333  plane waves:    2270
 k-point 95 :  -0.3077-0.0000 0.3333  plane waves:    2273
 k-point 96 :  -0.2308-0.0000 0.3333  plane waves:    2279
 k-point 97 :  -0.1538-0.0000 0.3333  plane waves:    2289
 k-point 98 :  -0.0769-0.0000 0.3333  plane waves:    2284
 k-point 99 :   0.0000 0.0769 0.3333  plane waves:    2284
 k-point ** :   0.0769 0.0769 0.3333  plane waves:    2283
 k-point ** :   0.1538 0.0769 0.3333  plane waves:    2279
 k-point ** :   0.2308 0.0769 0.3333  plane waves:    2280
 k-point ** :   0.3077 0.0769 0.3333  plane waves:    2274
 k-point ** :   0.3846 0.0769 0.3333  plane waves:    2267
 k-point ** :   0.4615 0.0769 0.3333  plane waves:    2263
 k-point ** :  -0.4615 0.0769 0.3333  plane waves:    2267
 k-point ** :  -0.3846 0.0769 0.3333  plane waves:    2274
 k-point ** :  -0.3077 0.0769 0.3333  plane waves:    2280
 k-point ** :  -0.2308 0.0769 0.3333  plane waves:    2279
 k-point ** :  -0.1538 0.0769 0.3333  plane waves:    2283
 k-point ** :  -0.0769 0.0769 0.3333  plane waves:    2284
 k-point ** :   0.0000 0.1538 0.3333  plane waves:    2289
 k-point ** :   0.0769 0.1538 0.3333  plane waves:    2279
 k-point ** :   0.1538 0.1538 0.3333  plane waves:    2276
 k-point ** :   0.2308 0.1538 0.3333  plane waves:    2277
 k-point ** :   0.3077 0.1538 0.3333  plane waves:    2266
 k-point ** :   0.3846 0.1538 0.3333  plane waves:    2268
 k-point ** :   0.4615 0.1538 0.3333  plane waves:    2268
 k-point ** :  -0.4615 0.1538 0.3333  plane waves:    2266
 k-point ** :  -0.3846 0.1538 0.3333  plane waves:    2277
 k-point ** :  -0.3077 0.1538 0.3333  plane waves:    2276
 k-point ** :  -0.2308 0.1538 0.3333  plane waves:    2279
 k-point ** :  -0.1538 0.1538 0.3333  plane waves:    2289
 k-point ** :  -0.0769 0.1538 0.3333  plane waves:    2283
 k-point ** :   0.0000 0.2308 0.3333  plane waves:    2279
 k-point ** :   0.0769 0.2308 0.3333  plane waves:    2280
 k-point ** :   0.1538 0.2308 0.3333  plane waves:    2277
 k-point ** :   0.2308 0.2308 0.3333  plane waves:    2274
 k-point ** :   0.3077 0.2308 0.3333  plane waves:    2267
 k-point ** :   0.3846 0.2308 0.3333  plane waves:    2268
 k-point ** :   0.4615 0.2308 0.3333  plane waves:    2267
 k-point ** :  -0.4615 0.2308 0.3333  plane waves:    2274
 k-point ** :  -0.3846 0.2308 0.3333  plane waves:    2277
 k-point ** :  -0.3077 0.2308 0.3333  plane waves:    2280
 k-point ** :  -0.2308 0.2308 0.3333  plane waves:    2279
 k-point ** :  -0.1538 0.2308 0.3333  plane waves:    2279
 k-point ** :  -0.0769 0.2308 0.3333  plane waves:    2279
 k-point ** :   0.0000 0.3077 0.3333  plane waves:    2273
 k-point ** :   0.0769 0.3077 0.3333  plane waves:    2274
 k-point ** :   0.1538 0.3077 0.3333  plane waves:    2266
 k-point ** :   0.2308 0.3077 0.3333  plane waves:    2267
 k-point ** :   0.3077 0.3077 0.3333  plane waves:    2270
 k-point ** :   0.3846 0.3077 0.3333  plane waves:    2270
 k-point ** :   0.4615 0.3077 0.3333  plane waves:    2267
 k-point ** :  -0.4615 0.3077 0.3333  plane waves:    2266
 k-point ** :  -0.3846 0.3077 0.3333  plane waves:    2274
 k-point ** :  -0.3077 0.3077 0.3333  plane waves:    2273
 k-point ** :  -0.2308 0.3077 0.3333  plane waves:    2280
 k-point ** :  -0.1538 0.3077 0.3333  plane waves:    2276
 k-point ** :  -0.0769 0.3077 0.3333  plane waves:    2280
 k-point ** :   0.0000 0.3846 0.3333  plane waves:    2270
 k-point ** :   0.0769 0.3846 0.3333  plane waves:    2267
 k-point ** :   0.1538 0.3846 0.3333  plane waves:    2268
 k-point ** :   0.2308 0.3846 0.3333  plane waves:    2268
 k-point ** :   0.3077 0.3846 0.3333  plane waves:    2270
 k-point ** :   0.3846 0.3846 0.3333  plane waves:    2268
 k-point ** :   0.4615 0.3846 0.3333  plane waves:    2268
 k-point ** :  -0.4615 0.3846 0.3333  plane waves:    2267
 k-point ** :  -0.3846 0.3846 0.3333  plane waves:    2270
 k-point ** :  -0.3077 0.3846 0.3333  plane waves:    2274
 k-point ** :  -0.2308 0.3846 0.3333  plane waves:    2277
 k-point ** :  -0.1538 0.3846 0.3333  plane waves:    2277
 k-point ** :  -0.0769 0.3846 0.3333  plane waves:    2274
 k-point ** :   0.0000 0.4615 0.3333  plane waves:    2264
 k-point ** :   0.0769 0.4615 0.3333  plane waves:    2263
 k-point ** :   0.1538 0.4615 0.3333  plane waves:    2268
 k-point ** :   0.2308 0.4615 0.3333  plane waves:    2267
 k-point ** :   0.3077 0.4615 0.3333  plane waves:    2267
 k-point ** :   0.3846 0.4615 0.3333  plane waves:    2268
 k-point ** :   0.4615 0.4615 0.3333  plane waves:    2263
 k-point ** :  -0.4615 0.4615 0.3333  plane waves:    2264
 k-point ** :  -0.3846 0.4615 0.3333  plane waves:    2267
 k-point ** :  -0.3077 0.4615 0.3333  plane waves:    2266
 k-point ** :  -0.2308 0.4615 0.3333  plane waves:    2274
 k-point ** :  -0.1538 0.4615 0.3333  plane waves:    2266
 k-point ** :  -0.0769 0.4615 0.3333  plane waves:    2267
 k-point ** :   0.0000-0.4615 0.3333  plane waves:    2264
 k-point ** :   0.0769-0.4615 0.3333  plane waves:    2267
 k-point ** :   0.1538-0.4615 0.3333  plane waves:    2266
 k-point ** :   0.2308-0.4615 0.3333  plane waves:    2274
 k-point ** :   0.3077-0.4615 0.3333  plane waves:    2266
 k-point ** :   0.3846-0.4615 0.3333  plane waves:    2267
 k-point ** :   0.4615-0.4615 0.3333  plane waves:    2264
 k-point ** :  -0.4615-0.4615 0.3333  plane waves:    2263
 k-point ** :  -0.3846-0.4615 0.3333  plane waves:    2268
 k-point ** :  -0.3077-0.4615 0.3333  plane waves:    2267
 k-point ** :  -0.2308-0.4615 0.3333  plane waves:    2267
 k-point ** :  -0.1538-0.4615 0.3333  plane waves:    2268
 k-point ** :  -0.0769-0.4615 0.3333  plane waves:    2263
 k-point ** :  -0.0000-0.3846 0.3333  plane waves:    2270
 k-point ** :   0.0769-0.3846 0.3333  plane waves:    2274
 k-point ** :   0.1538-0.3846 0.3333  plane waves:    2277
 k-point ** :   0.2308-0.3846 0.3333  plane waves:    2277
 k-point ** :   0.3077-0.3846 0.3333  plane waves:    2274
 k-point ** :   0.3846-0.3846 0.3333  plane waves:    2270
 k-point ** :   0.4615-0.3846 0.3333  plane waves:    2267
 k-point ** :  -0.4615-0.3846 0.3333  plane waves:    2268
 k-point ** :  -0.3846-0.3846 0.3333  plane waves:    2268
 k-point ** :  -0.3077-0.3846 0.3333  plane waves:    2270
 k-point ** :  -0.2308-0.3846 0.3333  plane waves:    2268
 k-point ** :  -0.1538-0.3846 0.3333  plane waves:    2268
 k-point ** :  -0.0769-0.3846 0.3333  plane waves:    2267
[...]
      5      -1.1699      2.00000
      6       4.3705      0.00000
      7       5.2516      0.00000
      8       5.4059      0.00000
      9       6.3034      0.00000
     10       6.8495      0.00000

 k-point   228 :      -0.0769   -0.2308    0.3333
  band No.  band energies     occupation 
      1      -8.8671      2.00000
      2      -5.2128      2.00000
      3      -2.3036      2.00000
      4      -1.8339      2.00000
      5      -0.5578      2.00000
      6       3.5996      0.00000
      7       5.1614      0.00000
      8       5.7322      0.00000
      9       6.5142      0.00000
     10       7.1663      0.00000

 k-point   229 :       0.0000   -0.1538    0.3333
  band No.  band energies     occupation 
      1      -9.4257      2.00000
      2      -5.1798      2.00000
      3      -1.6980      2.00000
      4      -0.9345      2.00000
      5       0.1867      2.00000
      6       3.5461      0.00000
      7       4.9638      0.00000
      8       5.4162      0.00000
      9       5.4173      0.00000
     10       7.7860      0.00000

 k-point   230 :       0.0769   -0.1538    0.3333
  band No.  band energies     occupation 
      1      -9.4895      2.00000
      2      -5.1923      2.00000
      3      -1.6942      2.00000
      4      -0.6160      2.00000
      5       0.2199      2.00000
      6       3.7681      0.00000
      7       4.4391      0.00000
      8       5.1422      0.00000
      9       5.6417      0.00000
     10       7.8367      0.00000

 k-point   231 :       0.1538   -0.1538    0.3333
  band No.  band energies     occupation 
      1      -9.4257      2.00000
      2      -5.1792      2.00000
      3      -1.7273      2.00000
      4      -0.8907      2.00000
      5       0.1862      2.00000
      6       3.5393      0.00000
      7       4.6411      0.00000
      8       5.4277      0.00000
      9       5.8387      0.00000
     10       7.3140      0.00000

 k-point   232 :       0.2308   -0.1538    0.3333
  band No.  band energies     occupation 
      1      -9.2361      2.00000
      2      -5.1577      2.00000
      3      -1.8275      2.00000
      4      -1.4126      2.00000
      5      -0.1893      2.00000
      6       3.8158      0.00000
      7       4.6512      0.00000
      8       5.5430      0.00000
      9       6.5475      0.00000
     10       6.9404      0.00000

 k-point   233 :       0.3077   -0.1538    0.3333
  band No.  band energies     occupation 
      1      -8.9267      2.00000
      2      -5.1863      2.00000
      3      -2.1470      2.00000
      4      -1.7883      2.00000
      5      -0.7338      2.00000
      6       4.4456      0.00000
      7       4.6657      0.00000
      8       5.4991      0.00000
      9       6.5740      0.00000
     10       6.7865      0.00000

 k-point   234 :       0.3846   -0.1538    0.3333
  band No.  band energies     occupation 
      1      -8.5107      2.00000
      2      -5.3670      2.00000
      3      -2.5661      2.00000
      4      -1.9874      2.00000
      5      -1.1699      2.00000
      6       4.3705      0.00000
      7       5.2516      0.00000
      8       5.4059      0.00000
      9       6.3035      0.00000
     10       6.8495      0.00000

 k-point   235 :       0.4615   -0.1538    0.3333
  band No.  band energies     occupation 
      1      -8.0214      2.00000
      2      -5.7559      2.00000
      3      -2.7999      2.00000
      4      -2.1254      2.00000
      5      -1.4660      2.00000
      6       4.3098      0.00000
      7       4.8517      0.00000
      8       5.6852      0.00000
      9       6.1959      0.00000
     10       7.7013      0.00000

 k-point   236 :      -0.4615   -0.1538    0.3333
  band No.  band energies     occupation 
      1      -7.5763      2.00000
      2      -6.1914      2.00000
      3      -2.8799      2.00000
      4      -2.1598      2.00000
      5      -1.6466      2.00000
      6       4.3372      0.00000
      7       4.5026      0.00000
      8       5.8918      0.00000
      9       5.9906      0.00000
     10       8.3490      0.00000

 k-point   237 :      -0.3846   -0.1538    0.3333
  band No.  band energies     occupation 
      1      -7.5765      2.00000
      2      -6.1907      2.00000
      3      -2.9010      2.00000
      4      -2.1169      2.00000
      5      -1.6657      2.00000
      6       4.2247      0.00000
      7       4.6266      0.00000
      8       5.6238      0.00000
      9       6.2390      0.00000
     10       8.6469      0.00000

 k-point   238 :      -0.3077   -0.1538    0.3333
  band No.  band energies     occupation 
      1      -8.0215      2.00000
      2      -5.7542      2.00000
      3      -2.8474      2.00000
      4      -2.0403      2.00000
      5      -1.4975      2.00000
      6       4.2030      0.00000
      7       5.0076      0.00000
      8       5.3539      0.00000
      9       6.4984      0.00000
     10       7.6552      0.00000

 k-point   239 :      -0.2308   -0.1538    0.3333
  band No.  band energies     occupation 
      1      -8.5107      2.00000
      2      -5.3656      2.00000
      3      -2.6111      2.00000
      4      -1.9188      2.00000
      5      -1.1881      2.00000
      6       4.3370      0.00000
      7       5.0122      0.00000
      8       5.6007      0.00000
      9       6.4381      0.00000
     10       6.7388      0.00000

 k-point   240 :      -0.1538   -0.1538    0.3333
  band No.  band energies     occupation 
      1      -8.9267      2.00000
      2      -5.1863      2.00000
      3      -2.1470      2.00000
      4      -1.7883      2.00000
      5      -0.7338      2.00000
      6       4.4456      0.00000
      7       4.6657      0.00000
      8       5.4991      0.00000
      9       6.5740      0.00000
     10       6.7865      0.00000

 k-point   241 :      -0.0769   -0.1538    0.3333
  band No.  band energies     occupation 
      1      -9.2361      2.00000
      2      -5.1585      2.00000
      3      -1.7520      2.00000
      4      -1.5020      2.00000
      5      -0.1854      2.00000
      6       3.8164      0.00000
      7       4.9286      0.00000
      8       5.2833      0.00000
      9       6.3918      0.00000
     10       7.3984      0.00000

 k-point   242 :       0.0000   -0.0769    0.3333
  band No.  band energies     occupation 
      1      -9.6179      2.00000
      2      -5.2266      2.00000
      3      -1.6679      2.00000
      4       0.0708      2.00000
      5       0.4900      2.00000
      6       3.3617      0.00000
      7       4.5495      0.00000
      8       4.7917      0.00000
      9       5.1977      0.00000
     10       8.5392      0.00000

 k-point   243 :       0.0769   -0.0769    0.3333
  band No.  band energies     occupation 
      1      -9.6179      2.00000
      2      -5.2266      2.00000
      3      -1.6700      2.00000
      4       0.0771      2.00000
      5       0.4897      2.00000
      6       3.3609      0.00000
      7       4.4830      0.00000
      8       4.7959      0.00000
      9       5.2707      0.00000
     10       8.2827      0.00000

 k-point   244 :       0.1538   -0.0769    0.3333
  band No.  band energies     occupation 
      1      -9.4895      2.00000
      2      -5.1923      2.00000
      3      -1.6942      2.00000
      4      -0.6160      2.00000
      5       0.2199      2.00000
      6       3.7681      0.00000
      7       4.4391      0.00000
      8       5.1422      0.00000
      9       5.6417      0.00000
     10       7.8367      0.00000

 k-point   245 :       0.2308   -0.0769    0.3333
  band No.  band energies     occupation 
      1      -9.2361      2.00000
      2      -5.1585      2.00000
      3      -1.7520      2.00000
      4      -1.5020      2.00000
      5      -0.1853      2.00000
      6       3.8164      0.00000
      7       4.9287      0.00000
      8       5.2833      0.00000
      9       6.3918      0.00000
     10       7.3984      0.00000

 k-point   246 :       0.3077   -0.0769    0.3333
  band No.  band energies     occupation 
      1      -8.8671      2.00000
      2      -5.2128      2.00000
      3      -2.3036      2.00000
      4      -1.8339      2.00000
      5      -0.5578      2.00000
      6       3.5996      0.00000
      7       5.1614      0.00000
      8       5.7322      0.00000
      9       6.5142      0.00000
     10       7.1663      0.00000

 k-point   247 :       0.3846   -0.0769    0.3333
  band No.  band energies     occupation 
      1      -8.4041      2.00000
      2      -5.4811      2.00000
      3      -2.7894      2.00000
      4      -1.9579      2.00000
      5      -0.8426      2.00000
      6       3.4230      0.00000
      7       4.8411      0.00000
      8       6.0386      0.00000
      9       6.4124      0.00000
     10       7.4340      0.00000

 k-point   248 :       0.4615   -0.0769    0.3333
  band No.  band energies     occupation 
      1      -7.9116      2.00000
      2      -5.9385      2.00000
      3      -2.9529      2.00000
      4      -2.0716      2.00000
      5      -1.0240      2.00000
      6       3.3154      0.00000
      7       4.5186      0.00000
      8       5.9850      0.00000
      9       6.4638      0.00000
     10       7.6885      0.00000

 k-point   249 :      -0.4615   -0.0769    0.3333
  band No.  band energies     occupation 
      1      -7.6365      2.00000
      2      -6.2227      2.00000
      3      -2.9839      2.00000
      4      -2.1023      2.00000
      5      -1.0900      2.00000
      6       3.2538      0.00000
      7       4.4264      0.00000
      8       5.7899      0.00000
      9       6.5908      0.00000
     10       8.0836      0.00000

 k-point   250 :      -0.3846   -0.0769    0.3333
  band No.  band energies     occupation 
      1      -7.9117      2.00000
      2      -5.9365      2.00000
      3      -2.9900      2.00000
      4      -2.0150      2.00000
      5      -1.0326      2.00000
      6       3.2446      0.00000
      7       4.6126      0.00000
      8       5.5795      0.00000
      9       6.7373      0.00000
     10       8.5109      0.00000

 k-point   251 :      -0.3077   -0.0769    0.3333
  band No.  band energies     occupation 
      1      -8.4042      2.00000
      2      -5.4778      2.00000
      3      -2.8488      2.00000
      4      -1.8699      2.00000
      5      -0.8547      2.00000
      6       3.3326      0.00000
      7       4.9590      0.00000
      8       5.4774      0.00000
      9       6.7982      0.00000
     10       8.0417      0.00000

 k-point   252 :      -0.2308   -0.0769    0.3333
  band No.  band energies     occupation 
      1      -8.8671      2.00000
      2      -5.2104      2.00000
      3      -2.3908      2.00000
      4      -1.7210      2.00000
      5      -0.5673      2.00000
      6       3.5389      0.00000
      7       4.9675      0.00000
      8       5.8516      0.00000
      9       6.4431      0.00000
     10       7.3300      0.00000

 k-point   253 :      -0.1538   -0.0769    0.3333
  band No.  band energies     occupation 
      1      -9.2361      2.00000
      2      -5.1577      2.00000
      3      -1.8275      2.00000
      4      -1.4126      2.00000
      5      -0.1893      2.00000
      6       3.8157      0.00000
      7       4.6512      0.00000
      8       5.5430      0.00000
      9       6.5475      0.00000
     10       6.9404      0.00000

 k-point   254 :      -0.0769   -0.0769    0.3333
  band No.  band energies     occupation 
      1      -9.4895      2.00000
      2      -5.1923      2.00000
      3      -1.6942      2.00000
      4      -0.6160      2.00000
      5       0.2198      2.00000
      6       3.7681      0.00000
      7       4.4391      0.00000
      8       5.1422      0.00000
      9       5.6417      0.00000
     10       7.8367      0.00000


--------------------------------------------------------------------------------------------------------


 soft charge-density along one line, spin component           1
         0         1         2         3         4         5         6         7         8         9
 total charge-density along one line
 
 pseudopotential strength for first ion, spin component:           1
 18.955   0.000  26.448   0.000  -0.000   0.000  -0.002   0.000  -0.000   0.000  -0.000   0.000  -0.004   0.000  -0.000   0.000
 26.448   0.000  36.908   0.000  -0.000   0.000  -0.003   0.000  -0.000   0.000  -0.000   0.000  -0.005   0.000  -0.000   0.000
 -0.000   0.000  -0.000   0.000   4.261   0.000  -0.000   0.000   0.000   0.000   7.944   0.000  -0.000   0.000   0.000   0.000
 -0.002   0.000  -0.003   0.000  -0.000   0.000   4.261   0.000  -0.000   0.000  -0.000   0.000   7.945   0.000  -0.000   0.000
 -0.000   0.000  -0.000   0.000   0.000   0.000  -0.000   0.000   4.261   0.000   0.000   0.000  -0.000   0.000   7.944   0.000
 -0.000   0.000  -0.000   0.000   7.944   0.000  -0.000   0.000   0.000   0.000  14.821   0.000  -0.000   0.000   0.000   0.000
 -0.004   0.000  -0.005   0.000  -0.000   0.000   7.945   0.000  -0.000   0.000  -0.000   0.000  14.822   0.000  -0.000   0.000
 -0.000   0.000  -0.000   0.000   0.000   0.000  -0.000   0.000   7.944   0.000   0.000   0.000  -0.000   0.000  14.821   0.000
 total augmentation occupancy for first ion, spin component:           1
  6.005  -2.293  -0.000   0.534   0.000   0.000  -0.168  -0.000
 -2.293   0.951   0.000  -0.333  -0.000  -0.000   0.084   0.000
 -0.000   0.000   2.961  -0.000  -0.000  -0.661   0.000   0.000
  0.534  -0.333  -0.000   3.546   0.000   0.000  -0.847  -0.000
  0.000  -0.000  -0.000   0.000   2.961   0.000  -0.000  -0.661
  0.000  -0.000  -0.661   0.000   0.000   0.155  -0.000  -0.000
 -0.168   0.084   0.000  -0.847  -0.000  -0.000   0.205   0.000
 -0.000   0.000   0.000  -0.000  -0.661  -0.000   0.000   0.155


------------------------ aborting loop because EDIFF is reached ----------------------------------------


    CHARGE:  cpu time    0.0562: real time    0.0563
    FORLOC:  cpu time    0.0011: real time    0.0011
    FORNL :  cpu time    0.1004: real time    0.1006
    STRESS:  cpu time    0.5122: real time    0.5135
    FORCOR:  cpu time    0.0100: real time    0.0100
    FORHAR:  cpu time    0.0036: real time    0.0037
    MIXING:  cpu time    0.0006: real time    0.0006
    OFIELD:  cpu time    0.0000: real time    0.0000

  FORCE on cell =-STRESS in cart. coord.  units (eV):
  Direction    XX          YY          ZZ          XY          YZ          ZX
  --------------------------------------------------------------------------------------
  Alpha Z     2.79388     2.79388     2.79388
  Ewald     -17.77734   -17.77753  -130.02002    -0.00017    -0.00036     0.00062
  Hartree    48.78038    48.78041   -28.23732     0.00003    -0.00019     0.00034
  E(xc)     -31.07798   -31.07798   -31.33073     0.00000    -0.00000     0.00000
  Local    -138.89538  -138.89522    51.86324     0.00013     0.00056    -0.00097
  n-local    71.41245    71.41239    74.52011    -0.00006    -0.00000     0.00000
  augment   -11.18222   -11.18220   -11.38177     0.00001    -0.00000     0.00000
  Kinetic    75.97822    75.97824    71.83242     0.00001     0.00004    -0.00008
  Fock        0.00000     0.00000     0.00000     0.00000     0.00000     0.00000
  -------------------------------------------------------------------------------------
  Total       0.03202     0.03199     0.03980    -0.00004     0.00004    -0.00008
  in kB       0.66037     0.65976     0.82085    -0.00076     0.00088    -0.00170
  external pressure =        0.71 kB  Pullay stress =        0.00 kB


 VOLUME and BASIS-vectors are now :
 -----------------------------------------------------------------------------
  energy-cutoff  :      550.00
  volume of cell :       77.68
      direct lattice vectors                 reciprocal lattice vectors
     3.888945790 -0.000000120  0.000019060     0.257139099  0.148459339 -0.000002760
    -1.944473000  3.367925780 -0.000019060     0.000000009  0.296918662  0.000002759
     0.000095480 -0.000055120  5.931102620    -0.000000826  0.000000477  0.168602714

  length of vectors
     3.888945790  3.888945784  5.931102621     0.296918662  0.296918662  0.168602714


 FORCES acting on ions
    electron-ion (+dipol)            ewald-force                    non-local-force                 convergence-correction
 -----------------------------------------------------------------------------------------------
   0.341E-03 -.218E-03 -.109E+02   -.245E-03 0.211E-03 0.120E+02   -.100E-03 0.710E-04 -.116E+01   -.502E-06 0.657E-05 -.264E-02
   -.342E-03 0.216E-03 0.109E+02   0.308E-03 -.106E-03 -.120E+02   0.100E-03 -.710E-04 0.116E+01   0.508E-06 -.656E-05 0.265E-02
   0.178E-03 0.258E-03 -.273E+02   -.597E-04 -.366E-04 0.302E+02   -.251E-05 0.131E-05 -.293E+01   -.482E-06 0.138E-05 0.322E-02
   0.142E-03 0.280E-03 0.273E+02   -.274E-05 -.682E-04 -.302E+02   0.251E-05 -.131E-05 0.293E+01   0.465E-06 -.141E-05 -.322E-02
 -----------------------------------------------------------------------------------------------
   0.319E-03 0.536E-03 0.201E-02   0.655E-15 -.108E-14 0.000E+00   0.140E-19 0.127E-19 0.000E+00   -.108E-07 -.173E-07 0.106E-04
 
 
 POSITION                                       TOTAL-FORCE (eV/Angst)
 -----------------------------------------------------------------------------------
      0.00001      2.24528      2.84289        -0.000036      0.000019     -0.001931
      1.94448      1.12263      2.12428         0.000036     -0.000019      0.001931
      0.00001      2.24527      4.34349        -0.000013      0.000007      0.006531
      1.94448      1.12263      0.62362         0.000013     -0.000007     -0.006531
 -----------------------------------------------------------------------------------
    total drift:                                0.000319      0.000536      0.002021


--------------------------------------------------------------------------------------------------------



  FREE ENERGIE OF THE ION-ELECTRON SYSTEM (eV)
  ---------------------------------------------------
  free  energy   TOTEN  =       -17.49856777 eV

  energy  without entropy=      -17.49856777  energy(sigma->0) =      -17.49856777
 


--------------------------------------------------------------------------------------------------------


    POTLOK:  cpu time    0.0118: real time    0.0119


--------------------------------------------------------------------------------------------------------




--------------------------------------------------------------------------------------------------------


  
 reached required accuracy - stopping structural energy minimisation
 writing wavefunctions
     LOOP+:  cpu time   17.7748: real time   18.4011
    4ORBIT:  cpu time    0.0000: real time    0.0000
 BZINTS: Fermi energy:  0.637478; 10.000000 electrons
         Band energy: -38.547714;  BLOECHL correction:  0.000000

 total amount of memory used by VASP MPI-rank0    47580. kBytes
=======================================================================

   base      :      30000. kBytes
   nonl-proj :       9577. kBytes
   fftplans  :        786. kBytes
   grid      :       1078. kBytes
   one-center:          3. kBytes
   wavefun   :       6136. kBytes
 
  
  
 General timing and accounting informations for this job:
 ========================================================
  
                  Total CPU time used (sec):       19.245
                            User time (sec):       18.626
                          System time (sec):        0.618
                         Elapsed time (sec):       20.409
  
                   Maximum memory used (kb):       51880.
                   Average memory used (kb):           0.
  
                          Minor page faults:        14985
                          Major page faults:           68
                 Voluntary context switches:         1087
