    4    4   85    1
  0.1942092E+02  0.3888946E-09  0.3888946E-09  0.5931103E-09  0.1500000E-16
  1.000000000000000E-004
  CAR 
 unknown system                          
     10    254     10
 
  0.0000000E+00  0.0000000E+00  0.0000000E+00  0.1972387E-02
    1       -9.711748   1.000000
    2       -4.881868   1.000000
    3       -2.224662   1.000000
    4        0.611132   1.000000
    5        0.611161   1.000000
    6        2.913987   0.000000
    7        4.539935   0.000000
    8        4.539962   0.000000
    9        6.394782   0.000000
   10        7.177675   0.000000
 
  0.7692308E-01  0.4153009E-17 -0.5843808E-21  0.3944773E-02
    1       -9.647010   1.000000
    2       -4.870591   1.000000
    3       -2.209211   1.000000
    4        0.077566   1.000000
    5        0.481644   1.000000
    6        3.304743   0.000000
    7        4.483960   0.000000
    8        4.785837   0.000000
    9        6.368028   0.000000
   10        7.139899   0.000000
 
  0.1538462E+00  0.7142998E-17 -0.7892230E-21  0.3944773E-02
    1       -9.454473   1.000000
    2       -4.855939   1.000000
    3       -2.170992   1.000000
    4       -0.891694   1.000000
    5        0.177512   1.000000
    6        3.469715   0.000000
    7        4.785593   0.000000
    8        5.423150   0.000000
    9        6.109566   0.000000
   10        7.132424   0.000000
 
  0.2307692E+00  0.1091071E-16 -0.1223904E-20  0.3944773E-02
    1       -9.140029   1.000000
    2       -4.906779   1.000000
    3       -2.152682   1.000000
    4       -1.775797   1.000000
    5       -0.165682   1.000000
    6        3.200059   0.000000
    7        5.110462   0.000000
    8        5.592892   0.000000
    9        6.241296   0.000000
   10        7.551027   0.000000
 
  0.3076923E+00  0.5669708E-16 -0.3856514E-20  0.3944773E-02
    1       -8.717631   1.000000
    2       -5.147942   1.000000
    3       -2.489372   1.000000
    4       -2.038100   1.000000
    5       -0.464206   1.000000
    6        2.952324   0.000000
    7        4.828619   0.000000
    8        5.184307   0.000000
    9        6.919855   0.000000
   10        8.343167   0.000000
 
  0.3846154E+00  0.3193150E-16 -0.2327117E-20  0.3944773E-02
    1       -8.223704   1.000000
    2       -5.625045   1.000000
    3       -2.744068   1.000000
    4       -2.050839   1.000000
    5       -0.677810   1.000000
    6        2.823671   0.000000
    7        4.349624   0.000000
    8        4.930369   0.000000
    9        7.175593   0.000000
   10        8.784228   0.000000
 
  0.4615385E+00  0.2182142E-16 -0.2447807E-20  0.3944773E-02
    1       -7.786577   1.000000
    2       -6.108460   1.000000
    3       -2.793641   1.000000
    4       -2.070178   1.000000
    5       -0.788198   1.000000
    6        2.793486   0.000000
    7        4.051999   0.000000
    8        4.772507   0.000000
    9        7.207569   0.000000
   10        8.957976   0.000000
 
  0.2233844E-24  0.7692308E-01  0.3880906E-21  0.3944773E-02
    1       -9.647010   1.000000
    2       -4.870591   1.000000
    3       -2.209211   1.000000
    4        0.077565   1.000000
    5        0.481644   1.000000
    6        3.304743   0.000000
    7        4.483960   0.000000
    8        4.785836   0.000000
    9        6.368028   0.000000
   10        7.139899   0.000000
 
  0.7692308E-01  0.7692308E-01 -0.3124301E-21  0.3944773E-02
    1       -9.518344   1.000000
    2       -4.857242   1.000000
    3       -2.182031   1.000000
    4       -0.595912   1.000000
    5        0.208111   1.000000
    6        3.711415   0.000000
    7        4.356136   0.000000
    8        5.335607   0.000000
    9        6.230898   0.000000
   10        7.078880   0.000000
 
  0.1538462E+00  0.7692308E-01 -0.8721173E-21  0.3944773E-02
    1       -9.264543   1.000000
    2       -4.872019   1.000000
    3       -2.144894   1.000000
    4       -1.438033   1.000000
    5       -0.204648   1.000000
    6        3.725504   0.000000
    7        4.672072   0.000000
    8        5.865092   0.000000
    9        5.961919   0.000000
   10        7.148128   0.000000
 
  0.2307692E+00  0.7692308E-01 -0.1825251E-20  0.3944773E-02
    1       -8.894659   1.000000
    2       -5.012368   1.000000
    3       -2.247290   1.000000
    4       -2.024195   1.000000
    5       -0.581796   1.000000
    6        3.457116   0.000000
    7        4.954522   0.000000
    8        5.364920   0.000000
    9        6.481580   0.000000
   10        7.450279   0.000000
 
  0.3076923E+00  0.7692308E-01 -0.1931352E-20  0.3944773E-02
    1       -8.430150   1.000000
    2       -5.383385   1.000000
    3       -2.621365   1.000000
    4       -2.055940   1.000000
    5       -0.863724   1.000000
    6        3.280642   0.000000
    7        4.641747   0.000000
    8        5.021792   0.000000
    9        6.857560   0.000000
   10        8.076328   0.000000
 
  0.3846154E+00  0.7692308E-01 -0.1468041E-20  0.3944773E-02
    1       -7.935092   1.000000
    2       -5.905981   1.000000
    3       -2.755123   1.000000
    4       -2.068951   1.000000
    5       -1.035504   1.000000
    6        3.231185   0.000000
    7        4.232580   0.000000
    8        4.836639   0.000000
    9        6.842721   0.000000
   10        8.993317   0.000000
 
  0.4615385E+00  0.7692308E-01 -0.3253618E-20  0.3944773E-02
    1       -7.657892   1.000000
    2       -6.210439   1.000000
    3       -2.773516   1.000000
    4       -2.078259   1.000000
    5       -1.093472   1.000000
    6        3.241464   0.000000
    7        4.058931   0.000000
    8        4.767623   0.000000
    9        6.809484   0.000000
   10        9.269697   0.000000
 
 -0.4615385E+00  0.7692308E-01  0.4971770E-20  0.3944773E-02
    1       -7.935091   1.000000
    2       -5.905983   1.000000
    3       -2.755123   1.000000
    4       -2.068952   1.000000
    5       -1.035503   1.000000
    6        3.231184   0.000000
    7        4.232582   0.000000
    8        4.836656   0.000000
    9        6.842696   0.000000
   10        8.993345   0.000000
 
 -0.3846154E+00  0.7692308E-01  0.3186192E-20  0.3944773E-02
    1       -8.430149   1.000000
    2       -5.383387   1.000000
    3       -2.621367   1.000000
    4       -2.055942   1.000000
    5       -0.863722   1.000000
    6        3.280641   0.000000
    7        4.641745   0.000000
    8        5.021824   0.000000
    9        6.857517   0.000000
   10        8.076354   0.000000
 
 -0.3076923E+00  0.7692308E-01  0.3240577E-20  0.3944773E-02
    1       -8.894658   1.000000
    2       -5.012369   1.000000
    3       -2.247301   1.000000
    4       -2.024191   1.000000
    5       -0.581791   1.000000
    6        3.457114   0.000000
    7        4.954537   0.000000
    8        5.364939   0.000000
    9        6.481539   0.000000
   10        7.450314   0.000000
 
 -0.2307692E+00  0.7692308E-01  0.2082979E-20  0.3944773E-02
    1       -9.264543   1.000000
    2       -4.872019   1.000000
    3       -2.144899   1.000000
    4       -1.438039   1.000000
    5       -0.204637   1.000000
    6        3.725502   0.000000
    7        4.672097   0.000000
    8        5.865082   0.000000
    9        5.961885   0.000000
   10        7.148193   0.000000
 
 -0.1538462E+00  0.7692308E-01  0.1334309E-20  0.3944773E-02
    1       -9.518344   1.000000
    2       -4.857242   1.000000
    3       -2.182034   1.000000
    4       -0.595928   1.000000
    5        0.208130   1.000000
    6        3.711419   0.000000
    7        4.356152   0.000000
    8        5.335570   0.000000
    9        6.230897   0.000000
   10        7.078929   0.000000
 
 -0.7692308E-01  0.7692308E-01  0.4467232E-21  0.3944773E-02
    1       -9.647010   1.000000
    2       -4.870591   1.000000
    3       -2.209212   1.000000
    4        0.077548   1.000000
    5        0.481663   1.000000
    6        3.304747   0.000000
    7        4.483969   0.000000
    8        4.785818   0.000000
    9        6.368027   0.000000
   10        7.139915   0.000000
 
  0.1206667E-23  0.1538462E+00  0.1134149E-20  0.3944773E-02
    1       -9.454473   1.000000
    2       -4.855939   1.000000
    3       -2.170992   1.000000
    4       -0.891694   1.000000
    5        0.177513   1.000000
    6        3.469715   0.000000
    7        4.785593   0.000000
    8        5.423150   0.000000
    9        6.109565   0.000000
   10        7.132425   0.000000
 
  0.7692308E-01  0.1538462E+00  0.7615267E-21  0.3944773E-02
    1       -9.264543   1.000000
    2       -4.872019   1.000000
    3       -2.144894   1.000000
    4       -1.438033   1.000000
    5       -0.204647   1.000000
    6        3.725504   0.000000
    7        4.672072   0.000000
    8        5.865091   0.000000
    9        5.961918   0.000000
   10        7.148129   0.000000
 
  0.1538462E+00  0.1538462E+00 -0.7097037E-21  0.3944773E-02
    1       -8.954372   1.000000
    2       -4.969808   1.000000
    3       -2.124212   1.000000
    4       -1.976569   1.000000
    5       -0.769467   1.000000
    6        4.365057   0.000000
    7        4.387754   0.000000
    8        5.681822   0.000000
    9        6.032786   0.000000
   10        7.004276   0.000000
 
  0.2307692E+00  0.1538462E+00 -0.7652028E-21  0.3944773E-02
    1       -8.537103   1.000000
    2       -5.242457   1.000000
    3       -2.395392   1.000000
    4       -2.114597   1.000000
    5       -1.222493   1.000000
    6        4.152365   0.000000
    7        4.755679   0.000000
    8        5.339906   0.000000
    9        6.356688   0.000000
   10        6.806112   0.000000
 
  0.3076923E+00  0.1538462E+00 -0.2907923E-21  0.3944773E-02
    1       -8.045567   1.000000
    2       -5.706283   1.000000
    3       -2.620131   1.000000
    4       -2.116780   1.000000
    5       -1.501416   1.000000
    6        4.064414   0.000000
    7        4.720408   0.000000
    8        4.908978   0.000000
    9        6.329504   0.000000
   10        7.676822   0.000000
 
  0.3846154E+00  0.1538462E+00 -0.2624002E-20  0.3944773E-02
    1       -7.597251   1.000000
    2       -6.177721   1.000000
    3       -2.706247   1.000000
    4       -2.099696   1.000000
    5       -1.643692   1.000000
    6        4.137198   0.000000
    7        4.401861   0.000000
    8        4.812345   0.000000
    9        6.153279   0.000000
   10        8.664224   0.000000
 
  0.4615385E+00  0.1538462E+00 -0.2978545E-20  0.3944773E-02
    1       -7.597249   1.000000
    2       -6.177723   1.000000
    3       -2.706247   1.000000
    4       -2.099694   1.000000
    5       -1.643695   1.000000
    6        4.137197   0.000000
    7        4.401863   0.000000
    8        4.812367   0.000000
    9        6.153255   0.000000
   10        8.664234   0.000000
 
 -0.4615385E+00  0.1538462E+00  0.3990883E-20  0.3944773E-02
    1       -8.045565   1.000000
    2       -5.706287   1.000000
    3       -2.620132   1.000000
    4       -2.116779   1.000000
    5       -1.501419   1.000000
    6        4.064414   0.000000
    7        4.720413   0.000000
    8        4.909027   0.000000
    9        6.329443   0.000000
   10        7.676848   0.000000
 
 -0.3846154E+00  0.1538462E+00  0.3461266E-20  0.3944773E-02
    1       -8.537101   1.000000
    2       -5.242460   1.000000
    3       -2.395399   1.000000
    4       -2.114597   1.000000
    5       -1.222489   1.000000
    6        4.152365   0.000000
    7        4.755718   0.000000
    8        5.339925   0.000000
    9        6.356646   0.000000
   10        6.806124   0.000000
 
 -0.3076923E+00  0.1538462E+00  0.3340575E-20  0.3944773E-02
    1       -8.954371   1.000000
    2       -4.969809   1.000000
    3       -2.124222   1.000000
    4       -1.976576   1.000000
    5       -0.769454   1.000000
    6        4.365072   0.000000
    7        4.387768   0.000000
    8        5.681830   0.000000
    9        6.032779   0.000000
   10        7.004296   0.000000
 
 -0.2307692E+00  0.1538462E+00  0.1730073E-20  0.3944773E-02
    1       -9.264542   1.000000
    2       -4.872019   1.000000
    3       -2.144900   1.000000
    4       -1.438049   1.000000
    5       -0.204629   1.000000
    6        3.725525   0.000000
    7        4.672070   0.000000
    8        5.865105   0.000000
    9        5.961882   0.000000
   10        7.148205   0.000000
 
 -0.1538462E+00  0.1538462E+00  0.2237362E-20  0.3944773E-02
    1       -9.454472   1.000000
    2       -4.855938   1.000000
    3       -2.170995   1.000000
    4       -0.891709   1.000000
    5        0.177529   1.000000
    6        3.469735   0.000000
    7        4.785577   0.000000
    8        5.423135   0.000000
    9        6.109573   0.000000
   10        7.132471   0.000000
 
 -0.7692308E-01  0.1538462E+00  0.1035787E-20  0.3944773E-02
    1       -9.518344   1.000000
    2       -4.857242   1.000000
    3       -2.182034   1.000000
    4       -0.595928   1.000000
    5        0.208131   1.000000
    6        3.711419   0.000000
    7        4.356152   0.000000
    8        5.335569   0.000000
    9        6.230897   0.000000
   10        7.078929   0.000000
 
  0.2289444E-23  0.2307692E+00  0.1584298E-20  0.3944773E-02
    1       -9.140029   1.000000
    2       -4.906779   1.000000
    3       -2.152682   1.000000
    4       -1.775797   1.000000
    5       -0.165682   1.000000
    6        3.200059   0.000000
    7        5.110464   0.000000
    8        5.592890   0.000000
    9        6.241296   0.000000
   10        7.551028   0.000000
 
  0.7692308E-01  0.2307692E+00  0.9451539E-21  0.3944773E-02
    1       -8.894659   1.000000
    2       -5.012368   1.000000
    3       -2.247291   1.000000
    4       -2.024194   1.000000
    5       -0.581796   1.000000
    6        3.457116   0.000000
    7        4.954524   0.000000
    8        5.364918   0.000000
    9        6.481580   0.000000
   10        7.450279   0.000000
 
  0.1538462E+00  0.2307692E+00  0.6380799E-21  0.3944773E-02
    1       -8.537103   1.000000
    2       -5.242457   1.000000
    3       -2.395392   1.000000
    4       -2.114597   1.000000
    5       -1.222493   1.000000
    6        4.152365   0.000000
    7        4.755680   0.000000
    8        5.339905   0.000000
    9        6.356688   0.000000
   10        6.806112   0.000000
 
  0.2307692E+00  0.2307692E+00 -0.1879161E-21  0.3944773E-02
    1       -8.085591   1.000000
    2       -5.621936   1.000000
    3       -2.432077   1.000000
    4       -2.267139   1.000000
    5       -1.706717   1.000000
    6        4.499562   0.000000
    7        4.659602   0.000000
    8        5.895942   0.000000
    9        6.110250   0.000000
   10        6.294003   0.000000
 
  0.3076923E+00  0.2307692E+00  0.5682832E-21  0.3944773E-02
    1       -7.587391   1.000000
    2       -6.099269   1.000000
    3       -2.562820   1.000000
    4       -2.277012   1.000000
    5       -1.953713   1.000000
    6        4.460052   0.000000
    7        4.746965   0.000000
    8        5.708919   0.000000
    9        5.756317   0.000000
   10        7.364823   0.000000
 
  0.3846154E+00  0.2307692E+00 -0.2217832E-20  0.3944773E-02
    1       -7.271375   1.000000
    2       -6.414083   1.000000
    3       -2.658628   1.000000
    4       -2.138676   1.000000
    5       -2.119161   1.000000
    6        4.428637   0.000000
    7        4.830424   0.000000
    8        5.521228   0.000000
    9        5.640918   0.000000
   10        8.078730   0.000000
 
  0.4615385E+00  0.2307692E+00 -0.4222462E-20  0.3944773E-02
    1       -7.587387   1.000000
    2       -6.099276   1.000000
    3       -2.562823   1.000000
    4       -2.276988   1.000000
    5       -1.953737   1.000000
    6        4.460055   0.000000
    7        4.747037   0.000000
    8        5.708866   0.000000
    9        5.756302   0.000000
   10        7.364841   0.000000
 
 -0.4615385E+00  0.2307692E+00  0.5696992E-20  0.3944773E-02
    1       -8.085588   1.000000
    2       -5.621942   1.000000
    3       -2.432066   1.000000
    4       -2.267149   1.000000
    5       -1.706724   1.000000
    6        4.499576   0.000000
    7        4.659670   0.000000
    8        5.895962   0.000000
    9        6.110160   0.000000
   10        6.294026   0.000000
 
 -0.3846154E+00  0.2307692E+00  0.3473308E-20  0.3944773E-02
    1       -8.537100   1.000000
    2       -5.242462   1.000000
    3       -2.395377   1.000000
    4       -2.114630   1.000000
    5       -1.222482   1.000000
    6        4.152400   0.000000
    7        4.755683   0.000000
    8        5.339967   0.000000
    9        6.356645   0.000000
   10        6.806107   0.000000
 
 -0.3076923E+00  0.2307692E+00  0.3118766E-20  0.3944773E-02
    1       -8.894657   1.000000
    2       -5.012370   1.000000
    3       -2.247273   1.000000
    4       -2.024235   1.000000
    5       -0.581781   1.000000
    6        3.457138   0.000000
    7        4.954512   0.000000
    8        5.364989   0.000000
    9        6.481547   0.000000
   10        7.450309   0.000000
 
 -0.2307692E+00  0.2307692E+00  0.1333189E-20  0.3944773E-02
    1       -9.140028   1.000000
    2       -4.906779   1.000000
    3       -2.152678   1.000000
    4       -1.775821   1.000000
    5       -0.165669   1.000000
    6        3.200080   0.000000
    7        5.110442   0.000000
    8        5.592938   0.000000
    9        6.241286   0.000000
   10        7.551069   0.000000
 
 -0.1538462E+00  0.2307692E+00  0.3315491E-20  0.3944773E-02
    1       -9.264542   1.000000
    2       -4.872019   1.000000
    3       -2.144900   1.000000
    4       -1.438049   1.000000
    5       -0.204629   1.000000
    6        3.725525   0.000000
    7        4.672070   0.000000
    8        5.865105   0.000000
    9        5.961881   0.000000
   10        7.148205   0.000000
 
 -0.7692308E-01  0.2307692E+00  0.2113915E-20  0.3944773E-02
    1       -9.264543   1.000000
    2       -4.872019   1.000000
    3       -2.144900   1.000000
    4       -1.438040   1.000000
    5       -0.204636   1.000000
    6        3.725502   0.000000
    7        4.672097   0.000000
    8        5.865082   0.000000
    9        5.961884   0.000000
   10        7.148194   0.000000
 
  0.3280536E-23  0.3076923E+00  0.9683606E-21  0.3944773E-02
    1       -8.717631   1.000000
    2       -5.147942   1.000000
    3       -2.489373   1.000000
    4       -2.038100   1.000000
    5       -0.464205   1.000000
    6        2.952324   0.000000
    7        4.828620   0.000000
    8        5.184307   0.000000
    9        6.919855   0.000000
   10        8.343168   0.000000
 
  0.7692308E-01  0.3076923E+00  0.1522667E-22  0.3944773E-02
    1       -8.430150   1.000000
    2       -5.383385   1.000000
    3       -2.621366   1.000000
    4       -2.055940   1.000000
    5       -0.863723   1.000000
    6        3.280642   0.000000
    7        4.641747   0.000000
    8        5.021792   0.000000
    9        6.857560   0.000000
   10        8.076328   0.000000
 
  0.1538462E+00  0.3076923E+00 -0.5583688E-21  0.3944773E-02
    1       -8.045567   1.000000
    2       -5.706283   1.000000
    3       -2.620131   1.000000
    4       -2.116780   1.000000
    5       -1.501415   1.000000
    6        4.064414   0.000000
    7        4.720409   0.000000
    8        4.908977   0.000000
    9        6.329503   0.000000
   10        7.676822   0.000000
 
  0.2307692E+00  0.3076923E+00 -0.1416566E-20  0.3944773E-02
    1       -7.587391   1.000000
    2       -6.099269   1.000000
    3       -2.562821   1.000000
    4       -2.277011   1.000000
    5       -1.953713   1.000000
    6        4.460051   0.000000
    7        4.746966   0.000000
    8        5.708920   0.000000
    9        5.756317   0.000000
   10        7.364823   0.000000
 
  0.3076923E+00  0.3076923E+00 -0.1844702E-20  0.3944773E-02
    1       -7.102276   1.000000
    2       -6.540177   1.000000
    3       -2.652139   1.000000
    4       -2.294532   1.000000
    5       -2.145257   1.000000
    6        4.690220   0.000000
    7        4.743282   0.000000
    8        5.221797   0.000000
    9        6.870808   0.000000
   10        7.391163   0.000000
 
  0.3846154E+00  0.3076923E+00 -0.2088968E-20  0.3944773E-02
    1       -7.102268   1.000000
    2       -6.540187   1.000000
    3       -2.652137   1.000000
    4       -2.294499   1.000000
    5       -2.145295   1.000000
    6        4.690250   0.000000
    7        4.743340   0.000000
    8        5.221718   0.000000
    9        6.870822   0.000000
   10        7.391157   0.000000
 
  0.4615385E+00  0.3076923E+00 -0.3363386E-20  0.3944773E-02
    1       -7.587383   1.000000
    2       -6.099281   1.000000
    3       -2.562795   1.000000
    4       -2.277025   1.000000
    5       -1.953732   1.000000
    6        4.460135   0.000000
    7        4.746986   0.000000
    8        5.708858   0.000000
    9        5.756317   0.000000
   10        7.364819   0.000000
 
 -0.4615385E+00  0.3076923E+00  0.4453075E-20  0.3944773E-02
    1       -8.045562   1.000000
    2       -5.706294   1.000000
    3       -2.620102   1.000000
    4       -2.116829   1.000000
    5       -1.501406   1.000000
    6        4.064463   0.000000
    7        4.720417   0.000000
    8        4.909045   0.000000
    9        6.329434   0.000000
   10        7.676826   0.000000
 
 -0.3846154E+00  0.3076923E+00  0.2229391E-20  0.3944773E-02
    1       -8.430146   1.000000
    2       -5.383392   1.000000
    3       -2.621342   1.000000
    4       -2.055988   1.000000
    5       -0.863711   1.000000
    6        3.280666   0.000000
    7        4.641787   0.000000
    8        5.021839   0.000000
    9        6.857522   0.000000
   10        8.076331   0.000000
 
 -0.3076923E+00  0.3076923E+00  0.3130809E-20  0.3944773E-02
    1       -8.717629   1.000000
    2       -5.147946   1.000000
    3       -2.489351   1.000000
    4       -2.038144   1.000000
    5       -0.464194   1.000000
    6        2.952346   0.000000
    7        4.828640   0.000000
    8        5.184351   0.000000
    9        6.919852   0.000000
   10        8.343166   0.000000
 
 -0.2307692E+00  0.3076923E+00  0.2601191E-20  0.3944773E-02
    1       -8.894657   1.000000
    2       -5.012370   1.000000
    3       -2.247273   1.000000
    4       -2.024235   1.000000
    5       -0.581781   1.000000
    6        3.457138   0.000000
    7        4.954512   0.000000
    8        5.364989   0.000000
    9        6.481547   0.000000
   10        7.450309   0.000000
 
 -0.1538462E+00  0.3076923E+00  0.2071574E-20  0.3944773E-02
    1       -8.954371   1.000000
    2       -4.969809   1.000000
    3       -2.124223   1.000000
    4       -1.976576   1.000000
    5       -0.769454   1.000000
    6        4.365076   0.000000
    7        4.387765   0.000000
    8        5.681830   0.000000
    9        6.032778   0.000000
   10        7.004296   0.000000
 
 -0.7692308E-01  0.3076923E+00  0.2296529E-22  0.3944773E-02
    1       -8.894658   1.000000
    2       -5.012369   1.000000
    3       -2.247301   1.000000
    4       -2.024191   1.000000
    5       -0.581790   1.000000
    6        3.457114   0.000000
    7        4.954538   0.000000
    8        5.364938   0.000000
    9        6.481539   0.000000
   10        7.450314   0.000000
 
  0.3408059E-23  0.3846154E+00  0.2280341E-20  0.3944773E-02
    1       -8.223703   1.000000
    2       -5.625045   1.000000
    3       -2.744069   1.000000
    4       -2.050839   1.000000
    5       -0.677809   1.000000
    6        2.823671   0.000000
    7        4.349623   0.000000
    8        4.930370   0.000000
    9        7.175592   0.000000
   10        8.784228   0.000000
 
  0.7692308E-01  0.3846154E+00  0.1750724E-20  0.3944773E-02
    1       -7.935092   1.000000
    2       -5.905981   1.000000
    3       -2.755124   1.000000
    4       -2.068951   1.000000
    5       -1.035503   1.000000
    6        3.231185   0.000000
    7        4.232580   0.000000
    8        4.836640   0.000000
    9        6.842721   0.000000
   10        8.993316   0.000000
 
  0.1538462E+00  0.3846154E+00  0.2447678E-20  0.3944773E-02
    1       -7.597250   1.000000
    2       -6.177721   1.000000
    3       -2.706247   1.000000
    4       -2.099696   1.000000
    5       -1.643692   1.000000
    6        4.137198   0.000000
    7        4.401861   0.000000
    8        4.812346   0.000000
    9        6.153279   0.000000
   10        8.664224   0.000000
 
  0.2307692E+00  0.3846154E+00 -0.2444730E-22  0.3944773E-02
    1       -7.271375   1.000000
    2       -6.414083   1.000000
    3       -2.658629   1.000000
    4       -2.138672   1.000000
    5       -2.119164   1.000000
    6        4.428637   0.000000
    7        4.830425   0.000000
    8        5.521228   0.000000
    9        5.640919   0.000000
   10        8.078730   0.000000
 
  0.3076923E+00  0.3846154E+00 -0.3603866E-21  0.3944773E-02
    1       -7.102267   1.000000
    2       -6.540187   1.000000
    3       -2.652137   1.000000
    4       -2.294499   1.000000
    5       -2.145295   1.000000
    6        4.690253   0.000000
    7        4.743335   0.000000
    8        5.221719   0.000000
    9        6.870822   0.000000
   10        7.391157   0.000000
 
  0.3846154E+00  0.3846154E+00 -0.4252970E-21  0.3944773E-02
    1       -7.271364   1.000000
    2       -6.414098   1.000000
    3       -2.658604   1.000000
    4       -2.138704   1.000000
    5       -2.119164   1.000000
    6        4.428736   0.000000
    7        4.830408   0.000000
    8        5.521172   0.000000
    9        5.640936   0.000000
   10        8.078697   0.000000
 
  0.4615385E+00  0.3846154E+00 -0.1525658E-20  0.3944773E-02
    1       -7.597240   1.000000
    2       -6.177737   1.000000
    3       -2.706209   1.000000
    4       -2.099758   1.000000
    5       -1.643679   1.000000
    6        4.137269   0.000000
    7        4.401906   0.000000
    8        4.812350   0.000000
    9        6.153224   0.000000
   10        8.664167   0.000000
 
 -0.4615385E+00  0.3846154E+00  0.3910295E-20  0.3944773E-02
    1       -7.935084   1.000000
    2       -5.905995   1.000000
    3       -2.755086   1.000000
    4       -2.069014   1.000000
    5       -1.035491   1.000000
    6        3.231207   0.000000
    7        4.232668   0.000000
    8        4.836651   0.000000
    9        6.842688   0.000000
   10        8.993269   0.000000
 
 -0.3846154E+00  0.3846154E+00  0.5892597E-20  0.3944773E-02
    1       -8.223699   1.000000
    2       -5.625055   1.000000
    3       -2.744037   1.000000
    4       -2.050895   1.000000
    5       -0.677799   1.000000
    6        2.823693   0.000000
    7        4.349696   0.000000
    8        4.930384   0.000000
    9        7.175594   0.000000
   10        8.784139   0.000000
 
 -0.3076923E+00  0.3846154E+00  0.4661842E-20  0.3944773E-02
    1       -8.430146   1.000000
    2       -5.383392   1.000000
    3       -2.621342   1.000000
    4       -2.055989   1.000000
    5       -0.863711   1.000000
    6        3.280666   0.000000
    7        4.641787   0.000000
    8        5.021839   0.000000
    9        6.857522   0.000000
   10        8.076331   0.000000
 
 -0.2307692E+00  0.3846154E+00  0.4132225E-20  0.3944773E-02
    1       -8.537100   1.000000
    2       -5.242462   1.000000
    3       -2.395377   1.000000
    4       -2.114630   1.000000
    5       -1.222482   1.000000
    6        4.152400   0.000000
    7        4.755682   0.000000
    8        5.339967   0.000000
    9        6.356645   0.000000
   10        6.806107   0.000000
 
 -0.1538462E+00  0.3846154E+00  0.3602607E-20  0.3944773E-02
    1       -8.537101   1.000000
    2       -5.242460   1.000000
    3       -2.395400   1.000000
    4       -2.114597   1.000000
    5       -1.222489   1.000000
    6        4.152365   0.000000
    7        4.755719   0.000000
    8        5.339924   0.000000
    9        6.356646   0.000000
   10        6.806124   0.000000
 
 -0.7692308E-01  0.3846154E+00  0.2401032E-20  0.3944773E-02
    1       -8.430149   1.000000
    2       -5.383387   1.000000
    3       -2.621368   1.000000
    4       -2.055942   1.000000
    5       -0.863722   1.000000
    6        3.280641   0.000000
    7        4.641745   0.000000
    8        5.021824   0.000000
    9        6.857517   0.000000
   10        8.076354   0.000000
 
  0.4578889E-23  0.4615385E+00  0.3168596E-20  0.3944773E-02
    1       -7.786577   1.000000
    2       -6.108460   1.000000
    3       -2.793642   1.000000
    4       -2.070178   1.000000
    5       -0.788198   1.000000
    6        2.793486   0.000000
    7        4.051998   0.000000
    8        4.772508   0.000000
    9        7.207569   0.000000
   10        8.957975   0.000000
 
  0.7692308E-01  0.4615385E+00  0.2609799E-20  0.3944773E-02
    1       -7.657891   1.000000
    2       -6.210439   1.000000
    3       -2.773516   1.000000
    4       -2.078259   1.000000
    5       -1.093472   1.000000
    6        3.241465   0.000000
    7        4.058930   0.000000
    8        4.767624   0.000000
    9        6.809484   0.000000
   10        9.269639   0.000000
 
  0.1538462E+00  0.4615385E+00  0.2065383E-20  0.3944773E-02
    1       -7.597249   1.000000
    2       -6.177723   1.000000
    3       -2.706247   1.000000
    4       -2.099694   1.000000
    5       -1.643695   1.000000
    6        4.137196   0.000000
    7        4.401863   0.000000
    8        4.812368   0.000000
    9        6.153255   0.000000
   10        8.664233   0.000000
 
  0.2307692E+00  0.4615385E+00  0.4696794E-21  0.3944773E-02
    1       -7.587386   1.000000
    2       -6.099276   1.000000
    3       -2.562824   1.000000
    4       -2.276987   1.000000
    5       -1.953737   1.000000
    6        4.460055   0.000000
    7        4.747037   0.000000
    8        5.708866   0.000000