   4   4   0   0
  0.1942092E+02  0.3888946E-09  0.3888946E-09  0.5931103E-09  0.5000000E-15
  1.000000000000000E-004
  CAR 
 unknown system                          
     10.29479466    -10.71840643  301      0.63747766      1.00000000
    -10.718  0.0000E+00  0.0000E+00
    -10.648  0.0000E+00  0.0000E+00
    -10.578  0.0000E+00  0.0000E+00
    -10.508  0.0000E+00  0.0000E+00
    -10.438  0.0000E+00  0.0000E+00
    -10.368  0.0000E+00  0.0000E+00
    -10.298  0.0000E+00  0.0000E+00
    -10.228  0.0000E+00  0.0000E+00
    -10.158  0.0000E+00  0.0000E+00
    -10.088  0.0000E+00  0.0000E+00
    -10.018  0.0000E+00  0.0000E+00
     -9.948  0.0000E+00  0.0000E+00
     -9.878  0.0000E+00  0.0000E+00
     -9.808  0.0000E+00  0.0000E+00
     -9.738  0.0000E+00  0.0000E+00
     -9.668  0.2275E-03  0.3653E-05
     -9.598  0.2996E-03  0.2707E-04
     -9.528  0.3503E-03  0.4983E-04
     -9.458  0.3325E-03  0.7453E-04
     -9.388  0.3289E-03  0.9721E-04
     -9.318  0.3477E-03  0.1209E-03
     -9.247  0.3533E-03  0.1458E-03
     -9.177  0.3394E-03  0.1697E-03
     -9.107  0.3407E-03  0.1935E-03
     -9.037  0.3515E-03  0.2177E-03
     -8.967  0.3622E-03  0.2427E-03
     -8.897  0.3561E-03  0.2681E-03
     -8.827  0.3549E-03  0.2928E-03
     -8.757  0.3599E-03  0.3179E-03
     -8.687  0.3656E-03  0.3433E-03
     -8.617  0.3744E-03  0.3692E-03
     -8.547  0.3831E-03  0.3957E-03
     -8.477  0.3815E-03  0.4225E-03
     -8.407  0.3852E-03  0.4493E-03
     -8.337  0.3951E-03  0.4766E-03
     -8.267  0.4052E-03  0.5046E-03
     -8.197  0.4161E-03  0.5334E-03
     -8.127  0.4309E-03  0.5631E-03
     -8.057  0.4450E-03  0.5937E-03
     -7.987  0.4667E-03  0.6256E-03
     -7.917  0.4996E-03  0.6593E-03
     -7.847  0.5761E-03  0.6969E-03
     -7.777  0.7487E-03  0.7410E-03
     -7.707  0.6788E-03  0.7959E-03
     -7.636  0.5221E-03  0.8355E-03
     -7.566  0.3923E-03  0.8761E-03
     -7.496  0.3417E-03  0.9018E-03
     -7.426  0.2910E-03  0.9240E-03
     -7.356  0.2404E-03  0.9426E-03
     -7.286  0.1897E-03  0.9577E-03
     -7.216  0.1843E-03  0.9703E-03
     -7.146  0.2005E-03  0.9838E-03
     -7.076  0.0000E+00  0.1000E-02
     -7.006  0.0000E+00  0.1000E-02
     -6.936  0.0000E+00  0.1000E-02
     -6.866  0.0000E+00  0.1000E-02
     -6.796  0.0000E+00  0.1000E-02
     -6.726  0.0000E+00  0.1000E-02
     -6.656  0.0000E+00  0.1000E-02
     -6.586  0.0000E+00  0.1000E-02
     -6.516  0.2657E-03  0.1014E-02
     -6.446  0.2099E-03  0.1030E-02
     -6.376  0.2507E-03  0.1045E-02
     -6.306  0.3449E-03  0.1066E-02
     -6.236  0.4393E-03  0.1094E-02
     -6.166  0.9039E-03  0.1161E-02
     -6.096  0.6776E-03  0.1222E-02
     -6.025  0.6101E-03  0.1267E-02
     -5.955  0.5427E-03  0.1307E-02
     -5.885  0.5087E-03  0.1344E-02
     -5.815  0.4904E-03  0.1379E-02
     -5.745  0.4737E-03  0.1412E-02
     -5.675  0.4781E-03  0.1446E-02
     -5.605  0.4783E-03  0.1479E-02
     -5.535  0.4774E-03  0.1513E-02
     -5.465  0.4814E-03  0.1546E-02
     -5.395  0.5256E-03  0.1581E-02
     -5.325  0.6079E-03  0.1621E-02
     -5.255  0.6867E-03  0.1666E-02
     -5.185  0.2119E-02  0.1753E-02
     -5.115  0.8975E-03  0.1866E-02
     -5.045  0.7279E-03  0.1923E-02
     -4.975  0.5396E-03  0.1967E-02
     -4.905  0.2852E-03  0.1998E-02
     -4.835  0.0000E+00  0.2000E-02
     -4.765  0.0000E+00  0.2000E-02
     -4.695  0.0000E+00  0.2000E-02
     -4.625  0.0000E+00  0.2000E-02
     -4.555  0.0000E+00  0.2000E-02
     -4.484  0.0000E+00  0.2000E-02
     -4.414  0.0000E+00  0.2000E-02
     -4.344  0.0000E+00  0.2000E-02
     -4.274  0.0000E+00  0.2000E-02
     -4.204  0.0000E+00  0.2000E-02
     -4.134  0.0000E+00  0.2000E-02
     -4.064  0.0000E+00  0.2000E-02
     -3.994  0.0000E+00  0.2000E-02
     -3.924  0.0000E+00  0.2000E-02
     -3.854  0.0000E+00  0.2000E-02
     -3.784  0.0000E+00  0.2000E-02
     -3.714  0.0000E+00  0.2000E-02
     -3.644  0.0000E+00  0.2000E-02
     -3.574  0.0000E+00  0.2000E-02
     -3.504  0.0000E+00  0.2000E-02
     -3.434  0.0000E+00  0.2000E-02
     -3.364  0.0000E+00  0.2000E-02
     -3.294  0.0000E+00  0.2000E-02
     -3.224  0.0000E+00  0.2000E-02
     -3.154  0.0000E+00  0.2000E-02
     -3.084  0.0000E+00  0.2000E-02
     -3.014  0.2736E-03  0.2001E-02
     -2.944  0.8904E-03  0.2059E-02
     -2.873  0.1236E-02  0.2133E-02
     -2.803  0.1545E-02  0.2232E-02
     -2.733  0.1594E-02  0.2338E-02
     -2.663  0.1925E-02  0.2473E-02
     -2.593  0.9013E-03  0.2574E-02
     -2.523  0.5821E-03  0.2623E-02
     -2.453  0.5916E-03  0.2663E-02
     -2.383  0.7584E-03  0.2709E-02
     -2.313  0.1155E-02  0.2774E-02
     -2.243  0.1490E-02  0.2863E-02
     -2.173  0.1991E-02  0.2983E-02
     -2.103  0.3277E-02  0.3160E-02
     -2.033  0.2677E-02  0.3417E-02
     -1.963  0.1911E-02  0.3574E-02
     -1.893  0.1541E-02  0.3693E-02
     -1.823  0.1338E-02  0.3793E-02
     -1.753  0.1168E-02  0.3880E-02
     -1.683  0.1277E-02  0.3963E-02
     -1.613  0.6496E-03  0.4024E-02
     -1.543  0.6089E-03  0.4068E-02
     -1.473  0.5573E-03  0.4109E-02
     -1.403  0.5080E-03  0.4146E-02
     -1.333  0.5121E-03  0.4181E-02
     -1.262  0.5161E-03  0.4217E-02
     -1.192  0.5225E-03  0.4254E-02
     -1.122  0.5329E-03  0.4291E-02
     -1.052  0.6245E-03  0.4330E-02
     -0.982  0.7105E-03  0.4377E-02
     -0.912  0.7628E-03  0.4429E-02
     -0.842  0.8094E-03  0.4484E-02
     -0.772  0.7025E-03  0.4541E-02
     -0.702  0.5906E-03  0.4586E-02
     -0.632  0.5224E-03  0.4624E-02
     -0.562  0.4885E-03  0.4660E-02
     -0.492  0.4405E-03  0.4692E-02
     -0.422  0.4033E-03  0.4722E-02
     -0.352  0.3770E-03  0.4749E-02
     -0.282  0.3507E-03  0.4774E-02
     -0.212  0.3244E-03  0.4798E-02
     -0.142  0.3370E-03  0.4822E-02
     -0.072  0.3138E-03  0.4844E-02
     -0.002  0.2906E-03  0.4866E-02
      0.068  0.2674E-03  0.4885E-02
      0.138  0.2522E-03  0.4904E-02
      0.208  0.2706E-03  0.4921E-02
      0.279  0.2513E-03  0.4940E-02
      0.349  0.2162E-03  0.4956E-02
      0.419  0.1811E-03  0.4970E-02
      0.489  0.2228E-03  0.4982E-02
      0.559  0.1305E-03  0.4996E-02
      0.629  0.0000E+00  0.5000E-02
      0.699  0.0000E+00  0.5000E-02
      0.769  0.0000E+00  0.5000E-02
      0.839  0.0000E+00  0.5000E-02
      0.909  0.0000E+00  0.5000E-02
      0.979  0.0000E+00  0.5000E-02
      1.049  0.0000E+00  0.5000E-02
      1.119  0.0000E+00  0.5000E-02
      1.189  0.0000E+00  0.5000E-02
      1.259  0.0000E+00  0.5000E-02
      1.329  0.0000E+00  0.5000E-02
      1.399  0.0000E+00  0.5000E-02
      1.469  0.0000E+00  0.5000E-02
      1.539  0.0000E+00  0.5000E-02
      1.609  0.0000E+00  0.5000E-02
      1.679  0.0000E+00  0.5000E-02
      1.749  0.0000E+00  0.5000E-02
      1.819  0.0000E+00  0.5000E-02
      1.890  0.0000E+00  0.5000E-02
      1.960  0.0000E+00  0.5000E-02
      2.030  0.0000E+00  0.5000E-02
      2.100  0.0000E+00  0.5000E-02
      2.170  0.0000E+00  0.5000E-02
      2.240  0.0000E+00  0.5000E-02
      2.310  0.0000E+00  0.5000E-02
      2.380  0.0000E+00  0.5000E-02
      2.450  0.0000E+00  0.5000E-02
      2.520  0.0000E+00  0.5000E-02
      2.590  0.0000E+00  0.5000E-02
      2.660  0.0000E+00  0.5000E-02
      2.730  0.0000E+00  0.5000E-02
      2.800  0.4002E-04  0.5000E-02
      2.870  0.2418E-03  0.5012E-02
      2.940  0.3351E-03  0.5032E-02
      3.010  0.4185E-03  0.5058E-02
      3.080  0.4884E-03  0.5090E-02
      3.150  0.5511E-03  0.5127E-02
      3.220  0.6140E-03  0.5168E-02
      3.290  0.5641E-03  0.5209E-02
      3.360  0.5805E-03  0.5249E-02
      3.430  0.6466E-03  0.5292E-02
      3.501  0.7117E-03  0.5339E-02
      3.571  0.7087E-03  0.5390E-02
      3.641  0.6731E-03  0.5438E-02
      3.711  0.6374E-03  0.5484E-02
      3.781  0.6528E-03  0.5532E-02
      3.851  0.3713E-03  0.5568E-02
      3.921  0.3595E-03  0.5593E-02
      3.991  0.3477E-03  0.5618E-02
      4.061  0.3359E-03  0.5642E-02
      4.131  0.4271E-03  0.5669E-02
      4.201  0.6059E-03  0.5705E-02
      4.271  0.8043E-03  0.5754E-02
      4.341  0.9857E-03  0.5817E-02
      4.411  0.1084E-02  0.5893E-02
      4.481  0.1851E-02  0.5996E-02
      4.551  0.1892E-02  0.6156E-02
      4.621  0.1377E-02  0.6271E-02
      4.691  0.1307E-02  0.6366E-02
      4.761  0.1497E-02  0.6463E-02
      4.831  0.1508E-02  0.6568E-02
      4.901  0.1615E-02  0.6676E-02
      4.971  0.1914E-02  0.6799E-02
      5.041  0.1325E-02  0.6904E-02
      5.112  0.1069E-02  0.6988E-02
      5.182  0.8963E-03  0.7055E-02
      5.252  0.8732E-03  0.7117E-02
      5.322  0.9875E-03  0.7182E-02
      5.392  0.1182E-02  0.7256E-02
      5.462  0.1565E-02  0.7353E-02
      5.532  0.1761E-02  0.7470E-02
      5.602  0.1545E-02  0.7593E-02
      5.672  0.1625E-02  0.7703E-02
      5.742  0.2325E-02  0.7838E-02
      5.812  0.1226E-02  0.7955E-02
      5.882  0.8326E-03  0.8027E-02
      5.952  0.7456E-03  0.8079E-02
      6.022  0.8281E-03  0.8135E-02
      6.092  0.1026E-02  0.8197E-02
      6.162  0.1035E-02  0.8271E-02
      6.232  0.1017E-02  0.8341E-02
      6.302  0.1117E-02  0.8416E-02
      6.372  0.1161E-02  0.8496E-02
      6.442  0.1292E-02  0.8582E-02
      6.512  0.1180E-02  0.8672E-02
      6.582  0.7410E-03  0.8740E-02
      6.653  0.7500E-03  0.8792E-02
      6.723  0.7653E-03  0.8845E-02
      6.793  0.1011E-02  0.8905E-02
      6.863  0.9336E-03  0.8974E-02
      6.933  0.8421E-03  0.9037E-02
      7.003  0.6952E-03  0.9087E-02
      7.073  0.7605E-03  0.9139E-02
      7.143  0.7861E-03  0.9194E-02
      7.213  0.7874E-03  0.9251E-02
      7.283  0.7105E-03  0.9303E-02
      7.353  0.6203E-03  0.9350E-02
      7.423  0.8588E-03  0.9403E-02
      7.493  0.5603E-03  0.9456E-02
      7.563  0.5331E-03  0.9494E-02
      7.633  0.5242E-03  0.9531E-02
      7.703  0.5127E-03  0.9568E-02
      7.773  0.4851E-03  0.9603E-02
      7.843  0.4640E-03  0.9636E-02
      7.913  0.4489E-03  0.9668E-02
      7.983  0.4362E-03  0.9699E-02
      8.053  0.4260E-03  0.9729E-02
      8.123  0.4054E-03  0.9759E-02
      8.193  0.3966E-03  0.9787E-02
      8.264  0.3881E-03  0.9814E-02
      8.334  0.3822E-03  0.9841E-02
      8.404  0.3716E-03  0.9868E-02
      8.474  0.3540E-03  0.9893E-02
      8.544  0.3291E-03  0.9917E-02
      8.614  0.2813E-03  0.9939E-02
      8.684  0.2401E-03  0.9957E-02
      8.754  0.1624E-03  0.9971E-02
      8.824  0.1183E-03  0.9980E-02
      8.894  0.9375E-04  0.9988E-02
      8.964  0.6269E-04  0.9993E-02
      9.034  0.3753E-04  0.9997E-02
      9.104  0.1968E-04  0.9999E-02
      9.174  0.7550E-05  0.1000E-01
      9.244  0.1128E-05  0.1000E-01
      9.314  0.0000E+00  0.1000E-01
      9.384  0.0000E+00  0.1000E-01
      9.454  0.0000E+00  0.1000E-01
      9.524  0.0000E+00  0.1000E-01
      9.594  0.0000E+00  0.1000E-01
      9.664  0.0000E+00  0.1000E-01
      9.734  0.0000E+00  0.1000E-01
      9.804  0.0000E+00  0.1000E-01
      9.875  0.0000E+00  0.1000E-01
      9.945  0.0000E+00  0.1000E-01
     10.015  0.0000E+00  0.1000E-01
     10.085  0.0000E+00  0.1000E-01
     10.155  0.0000E+00  0.1000E-01
     10.225  0.0000E+00  0.1000E-01
     10.295  0.0000E+00  0.1000E-01
