    4    4 2000    1
  0.1942092E+02  0.3888946E-09  0.3888946E-09  0.5931103E-09  0.5000000E-15
  1.000000000000000E-004
  CAR 
 unknown system                          
     10    254     10
 
  0.0000000E+00  0.0000000E+00  0.0000000E+00  0.1972387E-02
    1       -9.718406   1.000000
    2       -4.914141   1.000000
    3       -2.230599   1.000000
    4        0.612379   1.000000
    5        0.612409   1.000000
    6        2.912868   0.000000
    7        4.540257   0.000000
    8        4.540286   0.000000
    9        6.371175   0.000000
   10        7.221976   0.000000
 
  0.7692308E-01  0.4153009E-17 -0.5843808E-21  0.3944773E-02
    1       -9.653743   1.000000
    2       -4.902987   1.000000
    3       -2.215609   1.000000
    4        0.078854   1.000000
    5        0.482877   1.000000
    6        3.304370   0.000000
    7        4.483656   0.000000
    8        4.786098   0.000000
    9        6.349054   0.000000
   10        7.181377   0.000000
 
  0.1538462E+00  0.7142998E-17 -0.7892230E-21  0.3944773E-02
    1       -9.461438   1.000000
    2       -4.888460   1.000000
    3       -2.178774   1.000000
    4       -0.890176   1.000000
    5        0.178719   1.000000
    6        3.469789   0.000000
    7        4.788076   0.000000
    8        5.423144   0.000000
    9        6.103659   0.000000
   10        7.160618   0.000000
 
  0.2307692E+00  0.1091071E-16 -0.1223904E-20  0.3944773E-02
    1       -9.147417   1.000000
    2       -4.938336   1.000000
    3       -2.162254   1.000000
    4       -1.775495   1.000000
    5       -0.164495   1.000000
    6        3.200484   0.000000
    7        5.117614   0.000000
    8        5.603221   0.000000
    9        6.240514   0.000000
   10        7.558461   0.000000
 
  0.3076923E+00  0.5669708E-16 -0.3856514E-20  0.3944773E-02
    1       -8.725690   1.000000
    2       -5.175182   1.000000
    3       -2.495112   1.000000
    4       -2.048408   1.000000
    5       -0.463031   1.000000
    6        2.953585   0.000000
    7        4.833995   0.000000
    8        5.207063   0.000000
    9        6.917429   0.000000
   10        8.339059   0.000000
 
  0.3846154E+00  0.3193150E-16 -0.2327117E-20  0.3944773E-02
    1       -8.232765   1.000000
    2       -5.645543   1.000000
    3       -2.755582   1.000000
    4       -2.064127   1.000000
    5       -0.676642   1.000000
    6        2.825447   0.000000
    7        4.360198   0.000000
    8        4.952966   0.000000
    9        7.172015   0.000000
   10        8.781058   0.000000
 
  0.4615385E+00  0.2182142E-16 -0.2447807E-20  0.3944773E-02
    1       -7.796869   1.000000
    2       -6.124266   1.000000
    3       -2.809242   1.000000
    4       -2.084708   1.000000
    5       -0.787033   1.000000
    6        2.795081   0.000000
    7        4.065634   0.000000
    8        4.794988   0.000000
    9        7.203744   0.000000
   10        8.955845   0.000000
 
  0.2233844E-24  0.7692308E-01  0.3880906E-21  0.3944773E-02
    1       -9.653743   1.000000
    2       -4.902987   1.000000
    3       -2.215609   1.000000
    4        0.078855   1.000000
    5        0.482876   1.000000
    6        3.304370   0.000000
    7        4.483656   0.000000
    8        4.786099   0.000000
    9        6.349054   0.000000
   10        7.181377   0.000000
 
  0.7692308E-01  0.7692308E-01 -0.3124301E-21  0.3944773E-02
    1       -9.525230   1.000000
    2       -4.889769   1.000000
    3       -2.189352   1.000000
    4       -0.594450   1.000000
    5        0.209352   1.000000
    6        3.712155   0.000000
    7        4.354979   0.000000
    8        5.338250   0.000000
    9        6.218807   0.000000
   10        7.112725   0.000000
 
  0.1538462E+00  0.7692308E-01 -0.8721173E-21  0.3944773E-02
    1       -9.271756   1.000000
    2       -4.904220   1.000000
    3       -2.154005   1.000000
    4       -1.436794   1.000000
    5       -0.203350   1.000000
    6        3.726029   0.000000
    7        4.673879   0.000000
    8        5.869468   0.000000
    9        5.967836   0.000000
   10        7.158957   0.000000
 
  0.2307692E+00  0.7692308E-01 -0.1825251E-20  0.3944773E-02
    1       -8.902417   1.000000
    2       -5.042039   1.000000
    3       -2.253441   1.000000
    4       -2.030724   1.000000
    5       -0.580462   1.000000
    6        3.458079   0.000000
    7        4.961064   0.000000
    8        5.379328   0.000000
    9        6.486953   0.000000
   10        7.449153   0.000000
 
  0.3076923E+00  0.7692308E-01 -0.1931352E-20  0.3944773E-02
    1       -8.438746   1.000000
    2       -5.407116   1.000000
    3       -2.629789   1.000000
    4       -2.068331   1.000000
    5       -0.862464   1.000000
    6        3.282417   0.000000
    7        4.649972   0.000000
    8        5.043492   0.000000
    9        6.857251   0.000000
   10        8.076320   0.000000
 
  0.3846154E+00  0.7692308E-01 -0.1468041E-20  0.3944773E-02
    1       -7.944876   1.000000
    2       -5.923757   1.000000
    3       -2.768844   1.000000
    4       -2.083180   1.000000
    5       -1.034380   1.000000
    6        3.233037   0.000000
    7        4.244926   0.000000
    8        4.858971   0.000000
    9        6.840954   0.000000
   10        8.991985   0.000000
 
  0.4615385E+00  0.7692308E-01 -0.3253618E-20  0.3944773E-02
    1       -7.668581   1.000000
    2       -6.225634   1.000000
    3       -2.789227   1.000000
    4       -2.093083   1.000000
    5       -1.092403   1.000000
    6        3.242781   0.000000
    7        4.073124   0.000000
    8        4.790310   0.000000
    9        6.807290   0.000000
   10        9.284207   0.000000
 
 -0.4615385E+00  0.7692308E-01  0.4971770E-20  0.3944773E-02
    1       -7.944875   1.000000
    2       -5.923758   1.000000
    3       -2.768844   1.000000
    4       -2.083181   1.000000
    5       -1.034379   1.000000
    6        3.233036   0.000000
    7        4.244927   0.000000
    8        4.858987   0.000000
    9        6.840929   0.000000
   10        8.991985   0.000000
 
 -0.3846154E+00  0.7692308E-01  0.3186192E-20  0.3944773E-02
    1       -8.438745   1.000000
    2       -5.407118   1.000000
    3       -2.629791   1.000000
    4       -2.068333   1.000000
    5       -0.862462   1.000000
    6        3.282416   0.000000
    7        4.649970   0.000000
    8        5.043524   0.000000
    9        6.857208   0.000000
   10        8.076346   0.000000
 
 -0.3076923E+00  0.7692308E-01  0.3240577E-20  0.3944773E-02
    1       -8.902417   1.000000
    2       -5.042040   1.000000
    3       -2.253452   1.000000
    4       -2.030720   1.000000
    5       -0.580456   1.000000
    6        3.458078   0.000000
    7        4.961077   0.000000
    8        5.379349   0.000000
    9        6.486912   0.000000
   10        7.449188   0.000000
 
 -0.2307692E+00  0.7692308E-01  0.2082979E-20  0.3944773E-02
    1       -9.271756   1.000000
    2       -4.904220   1.000000
    3       -2.154010   1.000000
    4       -1.436802   1.000000
    5       -0.203338   1.000000
    6        3.726027   0.000000
    7        4.673905   0.000000
    8        5.869463   0.000000
    9        5.967798   0.000000
   10        7.159022   0.000000
 
 -0.1538462E+00  0.7692308E-01  0.1334309E-20  0.3944773E-02
    1       -9.525230   1.000000
    2       -4.889769   1.000000
    3       -2.189355   1.000000
    4       -0.594467   1.000000
    5        0.209372   1.000000
    6        3.712159   0.000000
    7        4.354996   0.000000
    8        5.338212   0.000000
    9        6.218806   0.000000
   10        7.112774   0.000000
 
 -0.7692308E-01  0.7692308E-01  0.4467232E-21  0.3944773E-02
    1       -9.653743   1.000000
    2       -4.902987   1.000000
    3       -2.215610   1.000000
    4        0.078836   1.000000
    5        0.482896   1.000000
    6        3.304374   0.000000
    7        4.483665   0.000000
    8        4.786079   0.000000
    9        6.349053   0.000000
   10        7.181394   0.000000
 
  0.1206667E-23  0.1538462E+00  0.1134149E-20  0.3944773E-02
    1       -9.461438   1.000000
    2       -4.888460   1.000000
    3       -2.178774   1.000000
    4       -0.890175   1.000000
    5        0.178718   1.000000
    6        3.469788   0.000000
    7        4.788076   0.000000
    8        5.423145   0.000000
    9        6.103659   0.000000
   10        7.160618   0.000000
 
  0.7692308E-01  0.1538462E+00  0.7615267E-21  0.3944773E-02
    1       -9.271756   1.000000
    2       -4.904220   1.000000
    3       -2.154005   1.000000
    4       -1.436794   1.000000
    5       -0.203350   1.000000
    6        3.726029   0.000000
    7        4.673880   0.000000
    8        5.869468   0.000000
    9        5.967837   0.000000
   10        7.158957   0.000000
 
  0.1538462E+00  0.1538462E+00 -0.7097037E-21  0.3944773E-02
    1       -8.962034   1.000000
    2       -5.000290   1.000000
    3       -2.135249   1.000000
    4       -1.977115   1.000000
    5       -0.767974   1.000000
    6        4.376281   0.000000
    7        4.381462   0.000000
    8        5.684165   0.000000
    9        6.054967   0.000000
   10        7.001901   0.000000
 
  0.2307692E+00  0.1538462E+00 -0.7652028E-21  0.3944773E-02
    1       -8.545474   1.000000
    2       -5.268512   1.000000
    3       -2.401031   1.000000
    4       -2.126780   1.000000
    5       -1.221278   1.000000
    6        4.156183   0.000000
    7        4.765732   0.000000
    8        5.350493   0.000000
    9        6.367042   0.000000
   10        6.805309   0.000000
 
  0.3076923E+00  0.1538462E+00 -0.2907923E-21  0.3944773E-02
    1       -8.054992   1.000000
    2       -5.726518   1.000000
    3       -2.630981   1.000000
    4       -2.130203   1.000000
    5       -1.501208   1.000000
    6        4.070535   0.000000
    7        4.730754   0.000000
    8        4.925806   0.000000
    9        6.332578   0.000000
   10        7.678837   0.000000
 
  0.3846154E+00  0.1538462E+00 -0.2624002E-20  0.3944773E-02
    1       -7.607977   1.000000
    2       -6.193775   1.000000
    3       -2.719873   1.000000
    4       -2.114533   1.000000
    5       -1.643848   1.000000
    6        4.146731   0.000000
    7        4.407793   0.000000
    8        4.834998   0.000000
    9        6.153877   0.000000
   10        8.670622   0.000000
 
  0.4615385E+00  0.1538462E+00 -0.2978545E-20  0.3944773E-02
    1       -7.607976   1.000000
    2       -6.193777   1.000000
    3       -2.719873   1.000000
    4       -2.114532   1.000000
    5       -1.643851   1.000000
    6        4.146729   0.000000
    7        4.407796   0.000000
    8        4.835019   0.000000
    9        6.153854   0.000000
   10        8.670630   0.000000
 
 -0.4615385E+00  0.1538462E+00  0.3990883E-20  0.3944773E-02
    1       -8.054990   1.000000
    2       -5.726522   1.000000
    3       -2.630983   1.000000
    4       -2.130202   1.000000
    5       -1.501210   1.000000
    6        4.070534   0.000000
    7        4.730757   0.000000
    8        4.925857   0.000000
    9        6.332518   0.000000
   10        7.678865   0.000000
 
 -0.3846154E+00  0.1538462E+00  0.3461266E-20  0.3944773E-02
    1       -8.545472   1.000000
    2       -5.268516   1.000000
    3       -2.401040   1.000000
    4       -2.126780   1.000000
    5       -1.221273   1.000000
    6        4.156183   0.000000
    7        4.765769   0.000000
    8        5.350512   0.000000
    9        6.367001   0.000000
   10        6.805321   0.000000
 
 -0.3076923E+00  0.1538462E+00  0.3340575E-20  0.3944773E-02
    1       -8.962032   1.000000
    2       -5.000292   1.000000
    3       -2.135259   1.000000
    4       -1.977123   1.000000
    5       -0.767960   1.000000
    6        4.376299   0.000000
    7        4.381472   0.000000
    8        5.684172   0.000000
    9        6.054959   0.000000
   10        7.001922   0.000000
 
 -0.2307692E+00  0.1538462E+00  0.1730073E-20  0.3944773E-02
    1       -9.271755   1.000000
    2       -4.904220   1.000000
    3       -2.154010   1.000000
    4       -1.436811   1.000000
    5       -0.203331   1.000000
    6        3.726050   0.000000
    7        4.673876   0.000000
    8        5.869483   0.000000
    9        5.967797   0.000000
   10        7.159034   0.000000
 
 -0.1538462E+00  0.1538462E+00  0.2237362E-20  0.3944773E-02
    1       -9.461438   1.000000
    2       -4.888460   1.000000
    3       -2.178777   1.000000
    4       -0.890191   1.000000
    5        0.178736   1.000000
    6        3.469809   0.000000
    7        4.788060   0.000000
    8        5.423129   0.000000
    9        6.103665   0.000000
   10        7.160666   0.000000
 
 -0.7692308E-01  0.1538462E+00  0.1035787E-20  0.3944773E-02
    1       -9.525230   1.000000
    2       -4.889769   1.000000
    3       -2.189355   1.000000
    4       -0.594466   1.000000
    5        0.209371   1.000000
    6        3.712159   0.000000
    7        4.354995   0.000000
    8        5.338213   0.000000
    9        6.218806   0.000000
   10        7.112775   0.000000
 
  0.2289444E-23  0.2307692E+00  0.1584298E-20  0.3944773E-02
    1       -9.147417   1.000000
    2       -4.938336   1.000000
    3       -2.162253   1.000000
    4       -1.775494   1.000000
    5       -0.164496   1.000000
    6        3.200483   0.000000
    7        5.117614   0.000000
    8        5.603221   0.000000
    9        6.240514   0.000000
   10        7.558461   0.000000
 
  0.7692308E-01  0.2307692E+00  0.9451539E-21  0.3944773E-02
    1       -8.902417   1.000000
    2       -5.042039   1.000000
    3       -2.253440   1.000000
    4       -2.030724   1.000000
    5       -0.580462   1.000000
    6        3.458079   0.000000
    7        4.961064   0.000000
    8        5.379329   0.000000
    9        6.486953   0.000000
   10        7.449153   0.000000
 
  0.1538462E+00  0.2307692E+00  0.6380799E-21  0.3944773E-02
    1       -8.545474   1.000000
    2       -5.268512   1.000000
    3       -2.401031   1.000000
    4       -2.126780   1.000000
    5       -1.221278   1.000000
    6        4.156183   0.000000
    7        4.765731   0.000000
    8        5.350493   0.000000
    9        6.367043   0.000000
   10        6.805309   0.000000
 
  0.2307692E+00  0.2307692E+00 -0.1879161E-21  0.3944773E-02
    1       -8.094892   1.000000
    2       -5.643384   1.000000
    3       -2.440759   1.000000
    4       -2.278954   1.000000
    5       -1.708937   1.000000
    6        4.512066   0.000000
    7        4.672470   0.000000
    8        5.899051   0.000000
    9        6.120377   0.000000
   10        6.294796   0.000000
 
  0.3076923E+00  0.2307692E+00  0.5682832E-21  0.3944773E-02
    1       -7.597992   1.000000
    2       -6.116585   1.000000
    3       -2.571874   1.000000
    4       -2.287366   1.000000
    5       -1.961778   1.000000
    6        4.475686   0.000000
    7        4.764989   0.000000
    8        5.711898   0.000000
    9        5.760468   0.000000
   10        7.366709   0.000000
 
  0.3846154E+00  0.2307692E+00 -0.2217832E-20  0.3944773E-02
    1       -7.283024   1.000000
    2       -6.429321   1.000000
    3       -2.666774   1.000000
    4       -2.147733   1.000000
    5       -2.131197   1.000000
    6        4.444746   0.000000
    7        4.853591   0.000000
    8        5.523068   0.000000
    9        5.641895   0.000000
   10        8.082339   0.000000
 
  0.4615385E+00  0.2307692E+00 -0.4222462E-20  0.3944773E-02
    1       -7.597988   1.000000
    2       -6.116592   1.000000
    3       -2.571877   1.000000
    4       -2.287344   1.000000
    5       -1.961801   1.000000
    6        4.475689   0.000000
    7        4.765059   0.000000
    8        5.711849   0.000000
    9        5.760449   0.000000
   10        7.366727   0.000000
 
 -0.4615385E+00  0.2307692E+00  0.5696992E-20  0.3944773E-02
    1       -8.094888   1.000000
    2       -5.643391   1.000000
    3       -2.440750   1.000000
    4       -2.278965   1.000000
    5       -1.708943   1.000000
    6        4.512079   0.000000
    7        4.672537   0.000000
    8        5.899073   0.000000
    9        6.120289   0.000000
   10        6.294820   0.000000
 
 -0.3846154E+00  0.2307692E+00  0.3473308E-20  0.3944773E-02
    1       -8.545471   1.000000
    2       -5.268517   1.000000
    3       -2.401017   1.000000
    4       -2.126814   1.000000
    5       -1.221266   1.000000
    6        4.156218   0.000000
    7        4.765733   0.000000
    8        5.350554   0.000000
    9        6.367000   0.000000
   10        6.805305   0.000000
 
 -0.3076923E+00  0.2307692E+00  0.3118766E-20  0.3944773E-02
    1       -8.902415   1.000000
    2       -5.042041   1.000000
    3       -2.253424   1.000000
    4       -2.030764   1.000000
    5       -0.580446   1.000000
    6        3.458102   0.000000
    7        4.961051   0.000000
    8        5.379398   0.000000
    9        6.486919   0.000000
   10        7.449184   0.000000
 
 -0.2307692E+00  0.2307692E+00  0.1333189E-20  0.3944773E-02
    1       -9.147416   1.000000
    2       -4.938337   1.000000
    3       -2.162250   1.000000
    4       -1.775518   1.000000
    5       -0.164482   1.000000
    6        3.200506   0.000000
    7        5.117592   0.000000
    8        5.603266   0.000000
    9        6.240503   0.000000
   10        7.558504   0.000000
 
 -0.1538462E+00  0.2307692E+00  0.3315491E-20  0.3944773E-02
    1       -9.271755   1.000000
    2       -4.904220   1.000000
    3       -2.154010   1.000000
    4       -1.436811   1.000000
    5       -0.203331   1.000000
    6        3.726051   0.000000
    7        4.673876   0.000000
    8        5.869483   0.000000
    9        5.967797   0.000000
   10        7.159034   0.000000
 
 -0.7692308E-01  0.2307692E+00  0.2113915E-20  0.3944773E-02
    1       -9.271756   1.000000
    2       -4.904220   1.000000
    3       -2.154010   1.000000
    4       -1.436801   1.000000
    5       -0.203339   1.000000
    6        3.726026   0.000000
    7        4.673905   0.000000
    8        5.869463   0.000000
    9        5.967798   0.000000
   10        7.159022   0.000000
 
  0.3280536E-23  0.3076923E+00  0.9683606E-21  0.3944773E-02
    1       -8.725690   1.000000
    2       -5.175182   1.000000
    3       -2.495112   1.000000
    4       -2.048408   1.000000
    5       -0.463031   1.000000
    6        2.953584   0.000000
    7        4.833995   0.000000
    8        5.207063   0.000000
    9        6.917429   0.000000
   10        8.339058   0.000000
 
  0.7692308E-01  0.3076923E+00  0.1522667E-22  0.3944773E-02
    1       -8.438746   1.000000
    2       -5.407116   1.000000
    3       -2.629788   1.000000
    4       -2.068332   1.000000
    5       -0.862465   1.000000
    6        3.282417   0.000000
    7        4.649972   0.000000
    8        5.043493   0.000000
    9        6.857251   0.000000
   10        8.076321   0.000000
 
  0.1538462E+00  0.3076923E+00 -0.5583688E-21  0.3944773E-02
    1       -8.054992   1.000000
    2       -5.726518   1.000000
    3       -2.630981   1.000000
    4       -2.130203   1.000000
    5       -1.501208   1.000000
    6        4.070534   0.000000
    7        4.730753   0.000000
    8        4.925806   0.000000
    9        6.332578   0.000000
   10        7.678838   0.000000
 
  0.2307692E+00  0.3076923E+00 -0.1416566E-20  0.3944773E-02
    1       -7.597993   1.000000
    2       -6.116585   1.000000
    3       -2.571873   1.000000
    4       -2.287366   1.000000
    5       -1.961778   1.000000
    6        4.475686   0.000000
    7        4.764989   0.000000
    8        5.711898   0.000000
    9        5.760467   0.000000
   10        7.366709   0.000000
 
  0.3076923E+00  0.3076923E+00 -0.1844702E-20  0.3944773E-02
    1       -7.114275   1.000000
    2       -6.555265   1.000000
    3       -2.652273   1.000000
    4       -2.308092   1.000000
    5       -2.160866   1.000000
    6        4.721329   0.000000
    7        4.751406   0.000000
    8        5.225333   0.000000
    9        6.872211   0.000000
   10        7.391751   0.000000
 
  0.3846154E+00  0.3076923E+00 -0.2088968E-20  0.3944773E-02
    1       -7.114266   1.000000
    2       -6.555276   1.000000
    3       -2.652271   1.000000
    4       -2.308058   1.000000
    5       -2.160903   1.000000
    6        4.721354   0.000000
    7        4.751468   0.000000
    8        5.225254   0.000000
    9        6.872226   0.000000
   10        7.391745   0.000000
 
  0.4615385E+00  0.3076923E+00 -0.3363386E-20  0.3944773E-02
    1       -7.597985   1.000000
    2       -6.116597   1.000000
    3       -2.571847   1.000000
    4       -2.287382   1.000000
    5       -1.961796   1.000000
    6        4.475769   0.000000
    7        4.765007   0.000000
    8        5.711844   0.000000
    9        5.760463   0.000000
   10        7.366705   0.000000
 
 -0.4615385E+00  0.3076923E+00  0.4453075E-20  0.3944773E-02
    1       -8.054987   1.000000
    2       -5.726529   1.000000
    3       -2.630952   1.000000
    4       -2.130252   1.000000
    5       -1.501198   1.000000
    6        4.070582   0.000000
    7        4.730763   0.000000
    8        4.925871   0.000000
    9        6.332510   0.000000
   10        7.678842   0.000000
 
 -0.3846154E+00  0.3076923E+00  0.2229391E-20  0.3944773E-02
    1       -8.438742   1.000000
    2       -5.407124   1.000000
    3       -2.629765   1.000000
    4       -2.068379   1.000000
    5       -0.862451   1.000000
    6        3.282441   0.000000
    7        4.650010   0.000000
    8        5.043539   0.000000
    9        6.857214   0.000000
   10        8.076324   0.000000
 
 -0.3076923E+00  0.3076923E+00  0.3130809E-20  0.3944773E-02
    1       -8.725688   1.000000
    2       -5.175186   1.000000
    3       -2.495091   1.000000
    4       -2.048452   1.000000
    5       -0.463019   1.000000
    6        2.953608   0.000000
    7        4.834014   0.000000
    8        5.207106   0.000000
    9        6.917425   0.000000
   10        8.339058   0.000000
 
 -0.2307692E+00  0.3076923E+00  0.2601191E-20  0.3944773E-02
    1       -8.902415   1.000000
    2       -5.042041   1.000000
    3       -2.253424   1.000000
    4       -2.030764   1.000000
    5       -0.580447   1.000000
    6        3.458102   0.000000
    7        4.961051   0.000000
    8        5.379398   0.000000
    9        6.486919   0.000000
   10        7.449184   0.000000
 
 -0.1538462E+00  0.3076923E+00  0.2071574E-20  0.3944773E-02
    1       -8.962033   1.000000
    2       -5.000292   1.000000
    3       -2.135259   1.000000
    4       -1.977122   1.000000
    5       -0.767961   1.000000
    6        4.376299   0.000000
    7        4.381472   0.000000
    8        5.684172   0.000000
    9        6.054959   0.000000
   10        7.001922   0.000000
 
 -0.7692308E-01  0.3076923E+00  0.2296529E-22  0.3944773E-02
    1       -8.902417   1.000000
    2       -5.042040   1.000000
    3       -2.253451   1.000000
    4       -2.030720   1.000000
    5       -0.580457   1.000000
    6        3.458077   0.000000
    7        4.961077   0.000000
    8        5.379349   0.000000
    9        6.486912   0.000000
   10        7.449188   0.000000
 
  0.3408059E-23  0.3846154E+00  0.2280341E-20  0.3944773E-02
    1       -8.232765   1.000000
    2       -5.645542   1.000000
    3       -2.755582   1.000000
    4       -2.064127   1.000000
    5       -0.676642   1.000000
    6        2.825446   0.000000
    7        4.360199   0.000000
    8        4.952966   0.000000
    9        7.172015   0.000000
   10        8.781058   0.000000
 
  0.7692308E-01  0.3846154E+00  0.1750724E-20  0.3944773E-02
    1       -7.944876   1.000000
    2       -5.923756   1.000000
    3       -2.768844   1.000000
    4       -2.083180   1.000000
    5       -1.034380   1.000000
    6        3.233036   0.000000
    7        4.244926   0.000000
    8        4.858971   0.000000
    9        6.840954   0.000000
   10        8.992066   0.000000
 
  0.1538462E+00  0.3846154E+00  0.2447678E-20  0.3944773E-02
    1       -7.607978   1.000000
    2       -6.193774   1.000000
    3       -2.719873   1.000000
    4       -2.114533   1.000000
    5       -1.643848   1.000000
    6        4.146731   0.000000
    7        4.407793   0.000000
    8        4.834998   0.000000
    9        6.153877   0.000000
   10        8.670600   0.000000
 
  0.2307692E+00  0.3846154E+00 -0.2444730E-22  0.3944773E-02
    1       -7.283025   1.000000
    2       -6.429320   1.000000
    3       -2.666774   1.000000
    4       -2.147733   1.000000
    5       -2.131197   1.000000
    6        4.444746   0.000000
    7        4.853591   0.000000
    8        5.523068   0.000000
    9        5.641894   0.000000
   10        8.082340   0.000000
 
  0.3076923E+00  0.3846154E+00 -0.3603866E-21  0.3944773E-02
    1       -7.114267   1.000000
    2       -6.555275   1.000000
    3       -2.652271   1.000000
    4       -2.308058   1.000000
    5       -2.160904   1.000000
    6        4.721354   0.000000
    7        4.751468   0.000000
    8        5.225253   0.000000
    9        6.872226   0.000000
   10        7.391745   0.000000
 
  0.3846154E+00  0.3846154E+00 -0.4252970E-21  0.3944773E-02
    1       -7.283013   1.000000
    2       -6.429337   1.000000
    3       -2.666749   1.000000
    4       -2.147790   1.000000
    5       -2.131171   1.000000
    6        4.444845   0.000000
    7        4.853573   0.000000
    8        5.523012   0.000000
    9        5.641912   0.000000
   10        8.082306   0.000000
 
  0.4615385E+00  0.3846154E+00 -0.1525658E-20  0.3944773E-02
    1       -7.607967   1.000000
    2       -6.193791   1.000000
    3       -2.719836   1.000000
    4       -2.114595   1.000000
    5       -1.643835   1.000000
    6        4.146800   0.000000
    7        4.407841   0.000000
    8        4.835000   0.000000
    9        6.153823   0.000000
   10        8.670546   0.000000
 
 -0.4615385E+00  0.3846154E+00  0.3910295E-20  0.3944773E-02
    1       -7.944868   1.000000
    2       -5.923771   1.000000
    3       -2.768808   1.000000
    4       -2.083243   1.000000
    5       -1.034367   1.000000
    6        3.233059   0.000000
    7        4.245012   0.000000
    8        4.858980   0.000000
    9        6.840921   0.000000
   10        8.991945   0.000000
 
 -0.3846154E+00  0.3846154E+00  0.5892597E-20  0.3944773E-02
    1       -8.232760   1.000000
    2       -5.645553   1.000000
    3       -2.755551   1.000000
    4       -2.064183   1.000000
    5       -0.676631   1.000000
    6        2.825469   0.000000
    7        4.360270   0.000000
    8        4.952978   0.000000
    9        7.172015   0.000000
   10        8.780972   0.000000
 
 -0.3076923E+00  0.3846154E+00  0.4661842E-20  0.3944773E-02
    1       -8.438742   1.000000
    2       -5.407124   1.000000
    3       -2.629765   1.000000
    4       -2.068379   1.000000
    5       -0.862451   1.000000
    6        3.282442   0.000000
    7        4.650010   0.000000
    8        5.043539   0.000000
    9        6.857213   0.000000
   10        8.076323   0.000000
 
 -0.2307692E+00  0.3846154E+00  0.4132225E-20  0.3944773E-02
    1       -8.545471   1.000000
    2       -5.268517   1.000000
    3       -2.401017   1.000000
    4       -2.126813   1.000000
    5       -1.221266   1.000000
    6        4.156218   0.000000
    7        4.765733   0.000000
    8        5.350554   0.000000
    9        6.366999   0.000000
   10        6.805304   0.000000
 
 -0.1538462E+00  0.3846154E+00  0.3602607E-20  0.3944773E-02
    1       -8.545472   1.000000
    2       -5.268515   1.000000
    3       -2.401039   1.000000
    4       -2.126780   1.000000
    5       -1.221274   1.000000
    6        4.156183   0.000000
    7        4.765769   0.000000
    8        5.350512   0.000000
    9        6.367001   0.000000
   10        6.805321   0.000000
 
 -0.7692308E-01  0.3846154E+00  0.2401032E-20  0.3944773E-02
    1       -8.438745   1.000000
    2       -5.407117   1.000000
    3       -2.629790   1.000000
    4       -2.068333   1.000000
    5       -0.862463   1.000000
    6        3.282415   0.000000
    7        4.649970   0.000000
    8        5.043524   0.000000
    9        6.857208   0.000000
   10        8.076345   0.000000
 
  0.4578889E-23  0.4615385E+00  0.3168596E-20  0.3944773E-02
    1       -7.796870   1.000000
    2       -6.124265   1.000000
    3       -2.809242   1.000000
    4       -2.084708   1.000000
    5       -0.787033   1.000000
    6        2.795080   0.000000
    7        4.065634   0.000000
    8        4.794988   0.000000
    9        7.203744   0.000000
   10        8.955844   0.000000
 
  0.7692308E-01  0.4615385E+00  0.2609799E-20  0.3944773E-02
    1       -7.668582   1.000000
    2       -6.225633   1.000000
    3       -2.789227   1.000000
    4       -2.093083   1.000000
    5       -1.092403   1.000000
    6        3.242781   0.000000
    7        4.073124   0.000000
    8        4.790310   0.000000
    9        6.807289   0.000000
   10        9.294795   0.000000
 
  0.1538462E+00  0.4615385E+00  0.2065383E-20  0.3944773E-02
    1       -7.607977   1.000000
    2       -6.193776   1.000000
    3       -2.719873   1.000000
    4       -2.114532   1.000000
    5       -1.643851   1.000000
    6        4.146729   0.000000
    7        4.407796   0.000000
    8        4.835019   0.000000
    9        6.153853   0.000000
   10        8.670596   0.000000
 
  0.2307692E+00  0.4615385E+00  0.4696794E-21  0.3944773E-02
    1       -7.597988   1.000000
    2       -6.116591   1.000000
    3       -2.571877   1.000000
    4       -2.287344   1.000000
    5       -1.961801   1.000000
    6        4.475689   0.000000
    7        4.765060   0.000000
    8        5.711849   0.000000