Automatically generated mesh
     254
Reciprocal lattice
    0.00000000000000    0.00000000000000    0.00000000000000             1
    0.07692307692308    0.00000000000000   -0.00000000000000             2
    0.15384615384615    0.00000000000000   -0.00000000000000             2
    0.23076923076923    0.00000000000000   -0.00000000000000             2
    0.30769230769231    0.00000000000000   -0.00000000000000             2
    0.38461538461539    0.00000000000000   -0.00000000000000             2
    0.46153846153846    0.00000000000000   -0.00000000000000             2
    0.00000000000000    0.07692307692308    0.00000000000000             2
    0.07692307692308    0.07692307692308   -0.00000000000000             2
    0.15384615384615    0.07692307692308   -0.00000000000000             2
    0.23076923076923    0.07692307692308   -0.00000000000000             2
    0.30769230769231    0.07692307692308   -0.00000000000000             2
    0.38461538461539    0.07692307692308   -0.00000000000000             2
    0.46153846153846    0.07692307692308   -0.00000000000000             2
   -0.46153846153846    0.07692307692308    0.00000000000000             2
   -0.38461538461539    0.07692307692308    0.00000000000000             2
   -0.30769230769231    0.07692307692308    0.00000000000000             2
   -0.23076923076923    0.07692307692308    0.00000000000000             2
   -0.15384615384615    0.07692307692308    0.00000000000000             2
   -0.07692307692308    0.07692307692308    0.00000000000000             2
    0.00000000000000    0.15384615384615    0.00000000000000             2
    0.07692307692308    0.15384615384615    0.00000000000000             2
    0.15384615384615    0.15384615384615   -0.00000000000000             2
    0.23076923076923    0.15384615384615   -0.00000000000000             2
    0.30769230769231    0.15384615384615   -0.00000000000000             2
    0.38461538461538    0.15384615384615   -0.00000000000000             2
    0.46153846153846    0.15384615384615   -0.00000000000000             2
   -0.46153846153846    0.15384615384615    0.00000000000000             2
   -0.38461538461539    0.15384615384615    0.00000000000000             2
   -0.30769230769231    0.15384615384615    0.00000000000000             2
   -0.23076923076923    0.15384615384615    0.00000000000000             2
   -0.15384615384615    0.15384615384615    0.00000000000000             2
   -0.07692307692308    0.15384615384615    0.00000000000000             2
    0.00000000000000    0.23076923076923    0.00000000000000             2
    0.07692307692308    0.23076923076923    0.00000000000000             2
    0.15384615384615    0.23076923076923    0.00000000000000             2
    0.23076923076923    0.23076923076923   -0.00000000000000             2
    0.30769230769231    0.23076923076923    0.00000000000000             2
    0.38461538461539    0.23076923076923   -0.00000000000000             2
    0.46153846153846    0.23076923076923   -0.00000000000000             2
   -0.46153846153846    0.23076923076923    0.00000000000000             2
   -0.38461538461539    0.23076923076923    0.00000000000000             2
   -0.30769230769231    0.23076923076923    0.00000000000000             2
   -0.23076923076923    0.23076923076923    0.00000000000000             2
   -0.15384615384615    0.23076923076923    0.00000000000000             2
   -0.07692307692308    0.23076923076923    0.00000000000000             2
    0.00000000000000    0.30769230769231    0.00000000000000             2
    0.07692307692308    0.30769230769231    0.00000000000000             2
    0.15384615384615    0.30769230769231   -0.00000000000000             2
    0.23076923076923    0.30769230769231   -0.00000000000000             2
    0.30769230769231    0.30769230769231   -0.00000000000000             2
    0.38461538461539    0.30769230769231   -0.00000000000000             2
    0.46153846153846    0.30769230769231   -0.00000000000000             2
   -0.46153846153846    0.30769230769231    0.00000000000000             2
   -0.38461538461539    0.30769230769231    0.00000000000000             2
   -0.30769230769231    0.30769230769231    0.00000000000000             2
   -0.23076923076923    0.30769230769231    0.00000000000000             2
   -0.15384615384615    0.30769230769231    0.00000000000000             2
   -0.07692307692308    0.30769230769231    0.00000000000000             2
    0.00000000000000    0.38461538461539    0.00000000000000             2
    0.07692307692308    0.38461538461539    0.00000000000000             2
    0.15384615384615    0.38461538461539    0.00000000000000             2
    0.23076923076923    0.38461538461538   -0.00000000000000             2
    0.30769230769231    0.38461538461539   -0.00000000000000             2
    0.38461538461538    0.38461538461539   -0.00000000000000             2
    0.46153846153846    0.38461538461539   -0.00000000000000             2
   -0.46153846153846    0.38461538461538    0.00000000000000             2
   -0.38461538461539    0.38461538461539    0.00000000000000             2
   -0.30769230769231    0.38461538461539    0.00000000000000             2
   -0.23076923076923    0.38461538461539    0.00000000000000             2
   -0.15384615384615    0.38461538461539    0.00000000000000             2
   -0.07692307692308    0.38461538461539    0.00000000000000             2
    0.00000000000000    0.46153846153846    0.00000000000000             2
    0.07692307692308    0.46153846153846    0.00000000000000             2
    0.15384615384615    0.46153846153846    0.00000000000000             2
    0.23076923076923    0.46153846153846    0.00000000000000             2
    0.30769230769231    0.46153846153846    0.00000000000000             2
    0.38461538461538    0.46153846153846   -0.00000000000000             2
    0.46153846153846    0.46153846153846   -0.00000000000000             2
   -0.46153846153846    0.46153846153846    0.00000000000000             2
   -0.38461538461539    0.46153846153846    0.00000000000000             2
   -0.30769230769231    0.46153846153846    0.00000000000000             2
   -0.23076923076923    0.46153846153846    0.00000000000000             2
   -0.15384615384615    0.46153846153846    0.00000000000000             2
   -0.07692307692308    0.46153846153846    0.00000000000000             2
    0.00000000000000   -0.00000000000000    0.33333333333333             2
    0.07692307692308    0.00000000000000    0.33333333333333             2
    0.15384615384615    0.00000000000000    0.33333333333333             2
    0.23076923076923    0.00000000000000    0.33333333333333             2
    0.30769230769231    0.00000000000000    0.33333333333333             2
    0.38461538461538    0.00000000000000    0.33333333333333             2
    0.46153846153846    0.00000000000000    0.33333333333333             2
   -0.46153846153846   -0.00000000000000    0.33333333333333             2
   -0.38461538461539   -0.00000000000000    0.33333333333333             2
   -0.30769230769231   -0.00000000000000    0.33333333333333             2
   -0.23076923076923   -0.00000000000000    0.33333333333333             2
   -0.15384615384615   -0.00000000000000    0.33333333333333             2
   -0.07692307692308   -0.00000000000000    0.33333333333333             2
    0.00000000000000    0.07692307692308    0.33333333333333             2
    0.07692307692308    0.07692307692308    0.33333333333333             2
    0.15384615384615    0.07692307692308    0.33333333333333             2
    0.23076923076923    0.07692307692308    0.33333333333333             2
    0.30769230769231    0.07692307692308    0.33333333333333             2
    0.38461538461538    0.07692307692308    0.33333333333333             2
    0.46153846153846    0.07692307692308    0.33333333333333             2
   -0.46153846153846    0.07692307692308    0.33333333333333             2
   -0.38461538461539    0.07692307692308    0.33333333333333             2
   -0.30769230769231    0.07692307692308    0.33333333333333             2
   -0.23076923076923    0.07692307692308    0.33333333333333             2
   -0.15384615384615    0.07692307692308    0.33333333333333             2
   -0.07692307692308    0.07692307692308    0.33333333333333             2
    0.00000000000000    0.15384615384615    0.33333333333333             2
    0.07692307692308    0.15384615384615    0.33333333333333             2
    0.15384615384615    0.15384615384615    0.33333333333333             2
    0.23076923076923    0.15384615384615    0.33333333333333             2
    0.30769230769231    0.15384615384615    0.33333333333333             2
    0.38461538461538    0.15384615384615    0.33333333333333             2
    0.46153846153846    0.15384615384615    0.33333333333333             2
   -0.46153846153846    0.15384615384615    0.33333333333333             2
   -0.38461538461539    0.15384615384615    0.33333333333333             2
   -0.30769230769231    0.15384615384615    0.33333333333333             2
   -0.23076923076923    0.15384615384615    0.33333333333333             2
   -0.15384615384615    0.15384615384615    0.33333333333333             2
   -0.07692307692308    0.15384615384615    0.33333333333333             2
    0.00000000000000    0.23076923076923    0.33333333333333             2
    0.07692307692308    0.23076923076923    0.33333333333333             2
    0.15384615384615    0.23076923076923    0.33333333333333             2
    0.23076923076923    0.23076923076923    0.33333333333333             2
    0.30769230769231    0.23076923076923    0.33333333333333             2
    0.38461538461538    0.23076923076923    0.33333333333333             2
    0.46153846153846    0.23076923076923    0.33333333333333             2
   -0.46153846153846    0.23076923076923    0.33333333333333             2
   -0.38461538461539    0.23076923076923    0.33333333333333             2
   -0.30769230769231    0.23076923076923    0.33333333333333             2
   -0.23076923076923    0.23076923076923    0.33333333333333             2
   -0.15384615384615    0.23076923076923    0.33333333333333             2
   -0.07692307692308    0.23076923076923    0.33333333333333             2
    0.00000000000000    0.30769230769231    0.33333333333333             2
    0.07692307692308    0.30769230769231    0.33333333333333             2
    0.15384615384615    0.30769230769231    0.33333333333333             2
    0.23076923076923    0.30769230769231    0.33333333333333             2
    0.30769230769231    0.30769230769231    0.33333333333333             2
    0.38461538461538    0.30769230769231    0.33333333333333             2
    0.46153846153846    0.30769230769231    0.33333333333333             2
   -0.46153846153846    0.30769230769231    0.33333333333333             2
   -0.38461538461539    0.30769230769231    0.33333333333333             2
   -0.30769230769231    0.30769230769231    0.33333333333333             2
   -0.23076923076923    0.30769230769231    0.33333333333333             2
   -0.15384615384615    0.30769230769231    0.33333333333333             2
   -0.07692307692308    0.30769230769231    0.33333333333333             2
    0.00000000000000    0.38461538461538    0.33333333333333             2
    0.07692307692308    0.38461538461538    0.33333333333333             2
    0.15384615384615    0.38461538461539    0.33333333333333             2
    0.23076923076923    0.38461538461538    0.33333333333333             2
    0.30769230769231    0.38461538461539    0.33333333333333             2
    0.38461538461538    0.38461538461539    0.33333333333333             2
    0.46153846153846    0.38461538461538    0.33333333333333             2
   -0.46153846153846    0.38461538461539    0.33333333333333             2
   -0.38461538461539    0.38461538461539    0.33333333333333             2
   -0.30769230769231    0.38461538461538    0.33333333333333             2
   -0.23076923076923    0.38461538461538    0.33333333333333             2
   -0.15384615384615    0.38461538461538    0.33333333333333             2
   -0.07692307692308    0.38461538461538    0.33333333333333             2
    0.00000000000000    0.46153846153846    0.33333333333333             2
    0.07692307692308    0.46153846153846    0.33333333333333             2
    0.15384615384615    0.46153846153846    0.33333333333333             2
    0.23076923076923    0.46153846153846    0.33333333333333             2
    0.30769230769231    0.46153846153846    0.33333333333333             2
    0.38461538461539    0.46153846153846    0.33333333333333             2
    0.46153846153846    0.46153846153846    0.33333333333333             2
   -0.46153846153846    0.46153846153846    0.33333333333333             2
   -0.38461538461539    0.46153846153846    0.33333333333333             2
   -0.30769230769231    0.46153846153846    0.33333333333333             2
   -0.23076923076923    0.46153846153846    0.33333333333333             2
   -0.15384615384615    0.46153846153846    0.33333333333333             2
   -0.07692307692308    0.46153846153846    0.33333333333333             2
    0.00000000000000   -0.46153846153846    0.33333333333333             2
    0.07692307692308   -0.46153846153846    0.33333333333333             2
    0.15384615384615   -0.46153846153846    0.33333333333333             2
    0.23076923076923   -0.46153846153846    0.33333333333333             2
    0.30769230769231   -0.46153846153846    0.33333333333333             2
    0.38461538461539   -0.46153846153846    0.33333333333333             2
    0.46153846153846   -0.46153846153846    0.33333333333333             2
   -0.46153846153846   -0.46153846153846    0.33333333333333             2
   -0.38461538461539   -0.46153846153846    0.33333333333333             2
   -0.30769230769231   -0.46153846153846    0.33333333333333             2
   -0.23076923076923   -0.46153846153846    0.33333333333333             2
   -0.15384615384615   -0.46153846153846    0.33333333333333             2
   -0.07692307692308   -0.46153846153846    0.33333333333333             2
   -0.00000000000000   -0.38461538461539    0.33333333333333             2
    0.07692307692308   -0.38461538461539    0.33333333333333             2
    0.15384615384615   -0.38461538461539    0.33333333333333             2
    0.23076923076923   -0.38461538461539    0.33333333333333             2
    0.30769230769231   -0.38461538461539    0.33333333333333             2
    0.38461538461538   -0.38461538461539    0.33333333333333             2
    0.46153846153846   -0.38461538461538    0.33333333333333             2
   -0.46153846153846   -0.38461538461539    0.33333333333333             2
   -0.38461538461539   -0.38461538461539    0.33333333333333             2
   -0.30769230769231   -0.38461538461539    0.33333333333333             2
   -0.23076923076923   -0.38461538461538    0.33333333333333             2
   -0.15384615384615   -0.38461538461538    0.33333333333333             2
   -0.07692307692308   -0.38461538461539    0.33333333333333             2
    0.00000000000000   -0.30769230769231    0.33333333333333             2
    0.07692307692308   -0.30769230769231    0.33333333333333             2
    0.15384615384615   -0.30769230769231    0.33333333333333             2
    0.23076923076923   -0.30769230769231    0.33333333333333             2
    0.30769230769231   -0.30769230769231    0.33333333333333             2
    0.38461538461538   -0.30769230769231    0.33333333333333             2
    0.46153846153846   -0.30769230769231    0.33333333333333             2
   -0.46153846153846   -0.30769230769231    0.33333333333333             2
   -0.38461538461539   -0.30769230769231    0.33333333333333             2
   -0.30769230769231   -0.30769230769231    0.33333333333333             2
   -0.23076923076923   -0.30769230769231    0.33333333333333             2
   -0.15384615384615   -0.30769230769231    0.33333333333333             2
   -0.07692307692308   -0.30769230769231    0.33333333333333             2
    0.00000000000000   -0.23076923076923    0.33333333333333             2
    0.07692307692308   -0.23076923076923    0.33333333333333             2
    0.15384615384615   -0.23076923076923    0.33333333333333             2
    0.23076923076923   -0.23076923076923    0.33333333333333             2
    0.30769230769231   -0.23076923076923    0.33333333333333             2
    0.38461538461538   -0.23076923076923    0.33333333333333             2
    0.46153846153846   -0.23076923076923    0.33333333333333             2
   -0.46153846153846   -0.23076923076923    0.33333333333333             2
   -0.38461538461539   -0.23076923076923    0.33333333333333             2
   -0.30769230769231   -0.23076923076923    0.33333333333333             2
   -0.23076923076923   -0.23076923076923    0.33333333333333             2
   -0.15384615384615   -0.23076923076923    0.33333333333333             2
   -0.07692307692308   -0.23076923076923    0.33333333333333             2
    0.00000000000000   -0.15384615384615    0.33333333333333             2
    0.07692307692308   -0.15384615384615    0.33333333333333             2
    0.15384615384615   -0.15384615384615    0.33333333333333             2
    0.23076923076923   -0.15384615384615    0.33333333333333             2
    0.30769230769231   -0.15384615384615    0.33333333333333             2
    0.38461538461538   -0.15384615384615    0.33333333333333             2
    0.46153846153846   -0.15384615384615    0.33333333333333             2
   -0.46153846153846   -0.15384615384615    0.33333333333333             2
   -0.38461538461539   -0.15384615384615    0.33333333333333             2
   -0.30769230769231   -0.15384615384615    0.33333333333333             2
   -0.23076923076923   -0.15384615384615    0.33333333333333             2
   -0.15384615384615   -0.15384615384615    0.33333333333333             2
   -0.07692307692308   -0.15384615384615    0.33333333333333             2
    0.00000000000000   -0.07692307692308    0.33333333333333             2
    0.07692307692308   -0.07692307692308    0.33333333333333             2
    0.15384615384615   -0.07692307692308    0.33333333333333             2
    0.23076923076923   -0.07692307692308    0.33333333333333             2
    0.30769230769231   -0.07692307692308    0.33333333333333             2
    0.38461538461539   -0.07692307692308    0.33333333333333             2
    0.46153846153846   -0.07692307692308    0.33333333333333             2
   -0.46153846153846   -0.07692307692308    0.33333333333333             2
   -0.38461538461539   -0.07692307692308    0.33333333333333             2
   -0.30769230769231   -0.07692307692308    0.33333333333333             2
   -0.23076923076923   -0.07692307692308    0.33333333333333             2
   -0.15384615384615   -0.07692307692308    0.33333333333333             2
   -0.07692307692308   -0.07692307692308    0.33333333333333             2
Tetrahedra
      1518    0.00032873109796
         2         1         2         8        87
         2         2         8         9        87
         2         8         9        87       100
         2         1         8        86        87
         2         8        86        87        99
         2         8        87        99       100
         2         2         3         9        88
         2         3         9        10        88
         2         9        10        88       101
         2         2         9        87        88
         2         9        87        88       100
         2         9        88       100       101
         2         3         4        10        89
         2         4        10        11        89
         2        10        11        89       102
         2         3        10        88        89
         2        10        88        89       101
         2        10        89       101       102
         2         4         5        11        90
         2         5        11        12        90
         2        11        12        90       103
         2         4        11        89        90
         2        11        89        90       102
         2        11        90       102       103
         2         5         6        12        91
         2         6        12        13        91
         2        12        13        91       104
         2         5        12        90        91
         2        12        90        91       103
         2        12        91       103       104
         2         6         7        13        92
         2         7        13        14        92
         2        13        14        92       105
         2         6        13        91        92
         2        13        91        92       104
         2        13        92       104       105
         2         7         7        14        93
         2         7        14        15        93
         2        14        15        93       106
         2         7        14        92        93
         2        14        92        93       105
         2        14        93       105       106
         2         6         7        15        94
         2         6        15        16        94
         2        15        16        94       107
         2         7        15        93        94
         2        15        93        94       106
         2        15        94       106       107
         2         5         6        16        95
         2         5        16        17        95
         2        16        17        95       108
         2         6        16        94        95
         2        16        94        95       107
         2        16        95       107       108
         2         4         5        17        96
         2         4        17        18        96
         2        17        18        96       109
         2         5        17        95        96
         2        17        95        96       108
         2        17        96       108       109
         2         3         4        18        97
         2         3        18        19        97
         2        18        19        97       110
         2         4        18        96        97
         2        18        96        97       109
         2        18        97       109       110
         2         2         3        19        98
         2         2        19        20        98
         2        19        20        98       111
         2         3        19        97        98
         2        19        97        98       110
         2        19        98       110       111
         2         1         2        20        86
         2         1         8        20        86
         2         8        20        86        99
         2         2        20        86        98
         2        20        86        98       111
         2        20        86        99       111
         2         8         9        21       100
         2         9        21        22       100
         2        21        22       100       113
         2         8        21        99       100
         2        21        99       100       112
         2        21       100       112       113
         2         9        10        22       101
         2        10        22        23       101
         2        22        23       101       114
         2         9        22       100       101
         2        22       100       101       113
         2        22       101       113       114
         2        10        11        23       102
         2        11        23        24       102
         2        23        24       102       115
         2        10        23       101       102
         2        23       101       102       114
         2        23       102       114       115
         2        11        12        24       103
         2        12        24        25       103
         2        24        25       103       116
         2        11        24       102       103
         2        24       102       103       115
         2        24       103       115       116
         2        12        13        25       104
         2        13        25        26       104
         2        25        26       104       117
         2        12        25       103       104
         2        25       103       104       116
         2        25       104       116       117
         2        13        14        26       105
         2        14        26        27       105
         2        26        27       105       118
         2        13        26       104       105
         2        26       104       105       117
         2        26       105       117       118
         2        14        15        27       106
         2        15        27        28       106
         2        27        28       106       119
         2        14        27       105       106
         2        27       105       106       118
         2        27       106       118       119
         2        15        16        28       107
         2        16        28        29       107
         2        28        29       107       120
         2        15        28       106       107
         2        28       106       107       119
         2        28       107       119       120
         2        16        17        29       108
         2        17        29        30       108
         2        29        30       108       121
         2        16        29       107       108
         2        29       107       108       120
         2        29       108       120       121
         2        17        18        30       109
         2        18        30        31       109
         2        30        31       109       122
         2        17        30       108       109
         2        30       108       109       121
         2        30       109       121       122
         2        18        19        31       110
         2        19        31        32       110
         2        31        32       110       123
         2        18        31       109       110
         2        31       109       110       122
         2        31       110       122       123
         2        19        20        32       111
         2        20        32        33       111
         2        32        33       111       124
         2        19        32       110       111
         2        32       110       111       123
         2        32       111       123       124
         2         8        20        33        99
         2         8        21        33        99
         2        21        33        99       112
         2        20        33        99       111
         2        33        99       111       124
         2        33        99       112       124
         2        21        22        34       113
         2        22        34        35       113
         2        34        35       113       126
         2        21        34       112       113
         2        34       112       113       125
         2        34       113       125       126
         2        22        23        35       114
         2        23        35        36       114
         2        35        36       114       127
         2        22        35       113       114
         2        35       113       114       126
         2        35       114       126       127
         2        23        24        36       115
         2        24        36        37       115
         2        36        37       115       128
         2        23        36       114       115
         2        36       114       115       127
         2        36       115       127       128
         2        24        25        37       116
         2        25        37        38       116
         2        37        38       116       129
         2        24        37       115       116
         2        37       115       116       128
         2        37       116       128       129
         2        25        26        38       117
         2        26        38        39       117
         2        38        39       117       130
         2        25        38       116       117
         2        38       116       117       129
         2        38       117       129       130
         2        26        27        39       118
         2        27        39        40       118
         2        39        40       118       131
         2        26        39       117       118
         2        39       117       118       130
         2        39       118       130       131
         2        27        28        40       119
         2        28        40        41       119
         2        40        41       119       132
         2        27        40       118       119
         2        40       118       119       131
         2        40       119       131       132
         2        28        29        41       120
         2        29        41        42       120
         2        41        42       120       133
         2        28        41       119       120
         2        41       119       120       132
         2        41       120       132       133
         2        29        30        42       121
         2        30        42        43       121
         2        42        43       121       134
         2        29        42       120       121
         2        42       120       121       133
         2        42       121       133       134
         2        30        31        43       122
         2        31        43        44       122