unknown system                          
           1
     3.888946   -0.000000    0.000019
    -1.944473    3.367926   -0.000019
     0.000095   -0.000055    5.931103
   Si   H 
   2   2
Direct configuration=     1
   0.33332737  0.66667205  0.47932071
   0.66666263  0.33333677  0.35815759
   0.33332195  0.66667489  0.73232534
   0.66666548  0.33333138  0.10514304
